export TMOUT=5400
export TMPDIR=/tmp
export PTMPDIR=/tmp/ptmp
 argument  1 = ALA_MET_3.nw
                                         
                                         


             Northwest Computational Chemistry Package (NWChem) 7.2.0
             --------------------------------------------------------


                    Environmental Molecular Sciences Laboratory
                       Pacific Northwest National Laboratory
                                Richland, WA 99352

                              Copyright (c) 1994-2022
                       Pacific Northwest National Laboratory
                            Battelle Memorial Institute

             NWChem is an open-source computational chemistry package
                        distributed under the terms of the
                      Educational Community License (ECL) 2.0
             A copy of the license is included with this distribution
                              in the LICENSE.TXT file

                                  ACKNOWLEDGMENT
                                  --------------

            This software and its documentation were developed at the
            EMSL at Pacific Northwest National Laboratory, a multiprogram
            national laboratory, operated for the U.S. Department of Energy
            by Battelle under Contract Number DE-AC05-76RL01830. Support
            for this work was provided by the Department of Energy Office
            of Biological and Environmental Research, Office of Basic
            Energy Sciences, and the Office of Advanced Scientific Computing.


           Job information
           ---------------

    hostname        = nova18-45
    program         = /opt/rit/el9/20230413/app/linux-rhel9-x86_64_v3/gcc-11.2.1/nwchem-7.2.0-oxtctbuhfuzyfaoziquq6bki22grib3g/bin/nwchem
    date            = Fri Jun 27 18:02:49 2025

    compiled        = Wed_May_17_23:46:39_2023
    source          = /tmp/root/spack-stage/spack-stage-nwchem-7.2.0-oxtctbuhfuzyfaoziquq6bki22grib3g/spack-src
    nwchem branch   = 7.2.0
    nwchem revision = d0d141fd
    ga revision     = 5.8.0
    use scalapack   = T
    input           = ALA_MET_3.nw
    prefix          = ALA_MET_3.
    data base       = ./ALA_MET_3.db
    status          = startup
    nproc           =        8
    time left       =     -1s



           Memory information
           ------------------

    heap     =   26214398 doubles =    200.0 Mbytes
    stack    =   26214395 doubles =    200.0 Mbytes
    global   =   52428800 doubles =    400.0 Mbytes (distinct from heap & stack)
    total    =  104857593 doubles =    800.0 Mbytes
    verify   = yes
    hardfail = no 


           Directory information
           ---------------------

  0 permanent = .
  0 scratch   = .




                                NWChem Input Module
                                -------------------



 Scaling coordinates for geometry "geometry" by  1.889725989
 (inverse scale =  0.529177249)

 C1  symmetry detected

          ------
          auto-z
          ------
  no constraints, skipping    0.0000000000000000     
  no constraints, skipping    0.0000000000000000     


                             Geometry "geometry" -> ""
                             -------------------------

 Output coordinates in angstroms (scale by  1.889725989 to convert to a.u.)

  No.       Tag          Charge          X              Y              Z
 ---- ---------------- ---------- -------------- -------------- --------------
    1 H                    1.0000    -0.07478288     5.13822700     0.82730968
    2 C                    6.0000     0.15101393     5.01873516    -0.23069056
    3 H                    1.0000     1.04411765     5.58451040    -0.48715133
    4 H                    1.0000    -0.69075529     5.37512068    -0.82425938
    5 C                    6.0000     0.37791428     3.55649828    -0.52987031
    6 O                    8.0000    -0.34944738     2.96643106    -1.32190105
    7 N                    7.0000     1.38536176     2.96164297     0.10703293
    8 H                    1.0000     1.91276911     3.49106849     0.77968671
    9 C                    6.0000     1.66833538     1.53294472    -0.02676257
   10 H                    1.0000     1.83614811     1.31578258    -1.08224090
   11 C                    6.0000     2.95533858     1.20318566     0.74091752
   12 H                    1.0000     3.19068480     0.14464052     0.62113299
   13 H                    1.0000     3.78439458     1.79662516     0.35131555
   14 H                    1.0000     2.82188106     1.41766870     1.80210041
   15 C                    6.0000     0.47371532     0.68991239     0.45931397
   16 O                    8.0000     0.01002056     0.85827430     1.58427149
   17 N                    7.0000    -0.01586238    -0.21187242    -0.40007350
   18 H                    1.0000     0.42922292    -0.28787219    -1.29981131
   19 C                    6.0000    -1.23821122    -1.01280349    -0.19702982
   20 H                    1.0000    -1.39717615    -1.56055514    -1.12509569
   21 C                    6.0000    -1.04786551    -2.07779550     0.90409121
   22 H                    1.0000    -1.06265982    -1.59285769     1.88040799
   23 H                    1.0000    -1.88691632    -2.77467529     0.86600848
   24 C                    6.0000     0.25247634    -2.88533038     0.78471587
   25 H                    1.0000     1.09961794    -2.22072188     0.95174473
   26 H                    1.0000     0.25707264    -3.62998828     1.58075952
   27 S                   16.0000     0.48599985    -3.74283741    -0.79754374
   28 C                    6.0000     2.02976701    -4.62253545    -0.44085438
   29 H                    1.0000     2.32523207    -5.20494982    -1.31333355
   30 H                    1.0000     2.81464174    -3.90497109    -0.20176642
   31 H                    1.0000     1.88073511    -5.29414905     0.40525831
   32 C                    6.0000    -2.53565301    -0.19361489    -0.00375062
   33 O                    8.0000    -3.55952572    -0.73320697     0.39974047
   34 N                    7.0000    -2.55055678     1.09825851    -0.30928132
   35 H                    1.0000    -1.71627639     1.56049345    -0.64331287
   36 H                    1.0000    -3.40591282     1.60863249    -0.16916905

      Atomic Mass 
      ----------- 

      H                  1.007825
      C                 12.000000
      O                 15.994910
      N                 14.003070
      S                 31.972070


 Effective nuclear repulsion energy (a.u.)    1429.5124140395

            Nuclear Dipole moment (a.u.) 
            ----------------------------
        X                 Y               Z
 ---------------- ---------------- ----------------
    -0.0000000000     0.0000000000     0.0000000000



                                Z-matrix (autoz)
                                -------- 

 Units are Angstrom for bonds and degrees for angles

      Type          Name      I     J     K     L     M      Value
      ----------- --------  ----- ----- ----- ----- ----- ----------
    1 Stretch                  1     2                       1.08841
    2 Stretch                  2     3                       1.08789
    3 Stretch                  2     4                       1.08991
    4 Stretch                  2     5                       1.50968
    5 Stretch                  5     6                       1.22660
    6 Stretch                  5     7                       1.33208
    7 Stretch                  7     8                       1.00544
    8 Stretch                  7     9                       1.46258
    9 Stretch                  9    10                       1.09058
   10 Stretch                  9    11                       1.53442
   11 Stretch                  9    15                       1.54081
   12 Stretch                 11    12                       1.09099
   13 Stretch                 11    13                       1.09146
   14 Stretch                 11    14                       1.09084
   15 Stretch                 15    16                       1.22837
   16 Stretch                 15    17                       1.33845
   17 Stretch                 17    18                       1.00668
   18 Stretch                 17    19                       1.47542
   19 Stretch                 19    20                       1.08932
   20 Stretch                 19    21                       1.54367
   21 Stretch                 19    32                       1.54654
   22 Stretch                 21    22                       1.09022
   23 Stretch                 21    23                       1.09137
   24 Stretch                 21    24                       1.53533
   25 Stretch                 24    25                       1.08961
   26 Stretch                 24    26                       1.09006
   27 Stretch                 24    27                       1.81477
   28 Stretch                 27    28                       1.81227
   29 Stretch                 28    29                       1.08983
   30 Stretch                 28    30                       1.09000
   31 Stretch                 28    31                       1.09050
   32 Stretch                 32    33                       1.22568
   33 Stretch                 32    34                       1.32759
   34 Stretch                 34    35                       1.01058
   35 Stretch                 34    36                       1.00586
   36 Bend                     1     2     3               110.02138
   37 Bend                     1     2     4               109.46710
   38 Bend                     1     2     5               109.27816
   39 Bend                     2     5     6               120.31682
   40 Bend                     2     5     7               116.83632
   41 Bend                     3     2     4               109.60917
   42 Bend                     3     2     5               109.48856
   43 Bend                     4     2     5               108.95722
   44 Bend                     5     7     8               118.78000
   45 Bend                     5     7     9               122.60193
   46 Bend                     6     5     7               122.84612
   47 Bend                     7     9    10               108.22917
   48 Bend                     7     9    11               109.05279
   49 Bend                     7     9    15               110.82998
   50 Bend                     8     7     9               118.29901
   51 Bend                     9    11    12               109.54341
   52 Bend                     9    11    13               109.97860
   53 Bend                     9    11    14               109.98859
   54 Bend                     9    15    16               120.43721
   55 Bend                     9    15    17               116.72290
   56 Bend                    10     9    11               108.20075
   57 Bend                    10     9    15               108.40124
   58 Bend                    11     9    15               112.01744
   59 Bend                    12    11    13               108.93492
   60 Bend                    12    11    14               108.90364
   61 Bend                    13    11    14               109.46768
   62 Bend                    15    17    18               117.58148
   63 Bend                    15    17    19               125.48052
   64 Bend                    16    15    17               122.83974
   65 Bend                    17    19    20               106.05865
   66 Bend                    17    19    21               111.74806
   67 Bend                    17    19    32               115.13116
   68 Bend                    18    17    19               116.63541
   69 Bend                    19    21    22               109.28332
   70 Bend                    19    21    23               108.71384
   71 Bend                    19    21    24               114.32065
   72 Bend                    19    32    33               120.58098
   73 Bend                    19    32    34               119.74202
   74 Bend                    20    19    21               106.18883
   75 Bend                    20    19    32               104.50115
   76 Bend                    21    19    32               112.31756
   77 Bend                    21    24    25               109.01056
   78 Bend                    21    24    26               107.82424
   79 Bend                    21    24    27               115.16975
   80 Bend                    22    21    23               107.74859
   81 Bend                    22    21    24               108.36539
   82 Bend                    23    21    24               108.21425
   83 Bend                    24    27    28                99.63534
   84 Bend                    25    24    26               107.54505
   85 Bend                    25    24    27               108.77292
   86 Bend                    26    24    27               108.26291
   87 Bend                    27    28    29               109.43801
   88 Bend                    27    28    30               109.69441
   89 Bend                    27    28    31               109.58778
   90 Bend                    29    28    30               109.40200
   91 Bend                    29    28    31               109.21272
   92 Bend                    30    28    31               109.49116
   93 Bend                    32    34    35               120.78995
   94 Bend                    32    34    36               118.11474
   95 Bend                    33    32    34               119.65516
   96 Bend                    35    34    36               121.06336
   97 Torsion                  1     2     5     6         118.66038
   98 Torsion                  1     2     5     7         -61.03486
   99 Torsion                  2     5     7     8           2.86335
  100 Torsion                  2     5     7     9         176.26172
  101 Torsion                  3     2     5     6        -120.77349
  102 Torsion                  3     2     5     7          59.53127
  103 Torsion                  4     2     5     6          -0.90742
  104 Torsion                  4     2     5     7         179.39734
  105 Torsion                  5     7     9    10          57.83350
  106 Torsion                  5     7     9    11         175.32736
  107 Torsion                  5     7     9    15         -60.91039
  108 Torsion                  6     5     7     8        -176.82351
  109 Torsion                  6     5     7     9          -3.42513
  110 Torsion                  7     9    11    12        -178.28281
  111 Torsion                  7     9    11    13         -58.58476
  112 Torsion                  7     9    11    14          62.05144
  113 Torsion                  7     9    15    16         -54.24705
  114 Torsion                  7     9    15    17         125.62056
  115 Torsion                  8     7     9    10        -128.73792
  116 Torsion                  8     7     9    11         -11.24407
  117 Torsion                  8     7     9    15         112.51819
  118 Torsion                  9    15    17    18           0.54863
  119 Torsion                  9    15    17    19        -172.89908
  120 Torsion                 10     9    11    12         -60.77099
  121 Torsion                 10     9    11    13          58.92706
  122 Torsion                 10     9    11    14         179.56326
  123 Torsion                 10     9    15    16        -172.88687
  124 Torsion                 10     9    15    17           6.98074
  125 Torsion                 11     9    15    16          67.79862
  126 Torsion                 11     9    15    17        -112.33377
  127 Torsion                 12    11     9    15          58.66132
  128 Torsion                 13    11     9    15         178.35937
  129 Torsion                 14    11     9    15         -61.00443
  130 Torsion                 15    17    19    20         174.28022
  131 Torsion                 15    17    19    21         -70.43051
  132 Torsion                 15    17    19    32          59.26600
  133 Torsion                 16    15    17    18        -179.58723
  134 Torsion                 16    15    17    19           6.96507
  135 Torsion                 17    19    21    22          74.83524
  136 Torsion                 17    19    21    23        -167.80959
  137 Torsion                 17    19    21    24         -46.79497
  138 Torsion                 17    19    32    33        -167.28305
  139 Torsion                 17    19    32    34          14.42261
  140 Torsion                 18    17    19    20           0.77712
  141 Torsion                 18    17    19    21         116.06639
  142 Torsion                 18    17    19    32        -114.23710
  143 Torsion                 19    21    24    25          66.04901
  144 Torsion                 19    21    24    26        -177.48281
  145 Torsion                 19    21    24    27         -56.49829
  146 Torsion                 19    32    34    35          -1.69903
  147 Torsion                 19    32    34    36        -179.66446
  148 Torsion                 20    19    21    22        -169.95528
  149 Torsion                 20    19    21    23         -52.60012
  150 Torsion                 20    19    21    24          68.41451
  151 Torsion                 20    19    32    33          76.80905
  152 Torsion                 20    19    32    34        -101.48529
  153 Torsion                 21    19    32    33         -37.86556
  154 Torsion                 21    19    32    34         143.84009
  155 Torsion                 21    24    27    28        -176.16421
  156 Torsion                 22    21    19    32         -56.31322
  157 Torsion                 22    21    24    25         -56.08430
  158 Torsion                 22    21    24    26          60.38388
  159 Torsion                 22    21    24    27        -178.63161
  160 Torsion                 23    21    19    32          61.04195
  161 Torsion                 23    21    24    25        -172.66041
  162 Torsion                 23    21    24    26         -56.19223
  163 Torsion                 23    21    24    27          64.79228
  164 Torsion                 24    21    19    32        -177.94343
  165 Torsion                 24    27    28    29        -179.89274
  166 Torsion                 24    27    28    30         -59.86110
  167 Torsion                 24    27    28    31          60.37287
  168 Torsion                 25    24    27    28          61.16138
  169 Torsion                 26    24    27    28         -55.41880
  170 Torsion                 33    32    34    35         179.99071
  171 Torsion                 33    32    34    36           2.02527


            XYZ format geometry
            -------------------
    36
 geometry
 H                    -0.07478288     5.13822700     0.82730968
 C                     0.15101393     5.01873516    -0.23069056
 H                     1.04411765     5.58451040    -0.48715133
 H                    -0.69075529     5.37512068    -0.82425938
 C                     0.37791428     3.55649828    -0.52987031
 O                    -0.34944738     2.96643106    -1.32190105
 N                     1.38536176     2.96164297     0.10703293
 H                     1.91276911     3.49106849     0.77968671
 C                     1.66833538     1.53294472    -0.02676257
 H                     1.83614811     1.31578258    -1.08224090
 C                     2.95533858     1.20318566     0.74091752
 H                     3.19068480     0.14464052     0.62113299
 H                     3.78439458     1.79662516     0.35131555
 H                     2.82188106     1.41766870     1.80210041
 C                     0.47371532     0.68991239     0.45931397
 O                     0.01002056     0.85827430     1.58427149
 N                    -0.01586238    -0.21187242    -0.40007350
 H                     0.42922292    -0.28787219    -1.29981131
 C                    -1.23821122    -1.01280349    -0.19702982
 H                    -1.39717615    -1.56055514    -1.12509569
 C                    -1.04786551    -2.07779550     0.90409121
 H                    -1.06265982    -1.59285769     1.88040799
 H                    -1.88691632    -2.77467529     0.86600848
 C                     0.25247634    -2.88533038     0.78471587
 H                     1.09961794    -2.22072188     0.95174473
 H                     0.25707264    -3.62998828     1.58075952
 S                     0.48599985    -3.74283741    -0.79754374
 C                     2.02976701    -4.62253545    -0.44085438
 H                     2.32523207    -5.20494982    -1.31333355
 H                     2.81464174    -3.90497109    -0.20176642
 H                     1.88073511    -5.29414905     0.40525831
 C                    -2.53565301    -0.19361489    -0.00375062
 O                    -3.55952572    -0.73320697     0.39974047
 N                    -2.55055678     1.09825851    -0.30928132
 H                    -1.71627639     1.56049345    -0.64331287
 H                    -3.40591282     1.60863249    -0.16916905

 ==============================================================================
                                internuclear distances
 ------------------------------------------------------------------------------
       center one      |      center two      | atomic units |  angstroms
 ------------------------------------------------------------------------------
    2 C                |   1 H                |     2.05679  |     1.08841
    3 H                |   2 C                |     2.05582  |     1.08789
    4 H                |   2 C                |     2.05964  |     1.08991
    5 C                |   2 C                |     2.85288  |     1.50968
    6 O                |   5 C                |     2.31794  |     1.22660
    7 N                |   5 C                |     2.51727  |     1.33208
    8 H                |   7 N                |     1.90001  |     1.00544
    9 C                |   7 N                |     2.76388  |     1.46258
   10 H                |   9 C                |     2.06089  |     1.09058
   11 C                |   9 C                |     2.89964  |     1.53442
   12 H                |  11 C                |     2.06167  |     1.09099
   13 H                |  11 C                |     2.06257  |     1.09146
   14 H                |  11 C                |     2.06138  |     1.09084
   15 C                |   9 C                |     2.91171  |     1.54081
   16 O                |  15 C                |     2.32128  |     1.22837
   17 N                |  15 C                |     2.52930  |     1.33845
   18 H                |  17 N                |     1.90235  |     1.00668
   19 C                |  17 N                |     2.78813  |     1.47542
   20 H                |  19 C                |     2.05851  |     1.08932
   21 C                |  19 C                |     2.91711  |     1.54367
   22 H                |  21 C                |     2.06022  |     1.09022
   23 H                |  21 C                |     2.06240  |     1.09137
   24 C                |  21 C                |     2.90136  |     1.53533
   25 H                |  24 C                |     2.05907  |     1.08961
   26 H                |  24 C                |     2.05991  |     1.09006
   27 S                |  24 C                |     3.42942  |     1.81477
   28 C                |  27 S                |     3.42469  |     1.81227
   29 H                |  28 C                |     2.05948  |     1.08983
   30 H                |  28 C                |     2.05979  |     1.09000
   31 H                |  28 C                |     2.06074  |     1.09050
   32 C                |  19 C                |     2.92253  |     1.54654
   33 O                |  32 C                |     2.31619  |     1.22568
   34 N                |  32 C                |     2.50879  |     1.32759
   35 H                |  34 N                |     1.90971  |     1.01058
   36 H                |  34 N                |     1.90079  |     1.00586
 ------------------------------------------------------------------------------
                         number of included internuclear distances:         35
 ==============================================================================



 ==============================================================================
                                 internuclear angles
 ------------------------------------------------------------------------------
        center 1       |       center 2       |       center 3       |  degrees
 ------------------------------------------------------------------------------
    1 H                |   2 C                |   3 H                |   110.02
    1 H                |   2 C                |   4 H                |   109.47
    1 H                |   2 C                |   5 C                |   109.28
    3 H                |   2 C                |   4 H                |   109.61
    3 H                |   2 C                |   5 C                |   109.49
    4 H                |   2 C                |   5 C                |   108.96
    2 C                |   5 C                |   6 O                |   120.32
    2 C                |   5 C                |   7 N                |   116.84
    6 O                |   5 C                |   7 N                |   122.85
    5 C                |   7 N                |   8 H                |   118.78
    5 C                |   7 N                |   9 C                |   122.60
    8 H                |   7 N                |   9 C                |   118.30
    7 N                |   9 C                |  10 H                |   108.23
    7 N                |   9 C                |  11 C                |   109.05
    7 N                |   9 C                |  15 C                |   110.83
   10 H                |   9 C                |  11 C                |   108.20
   10 H                |   9 C                |  15 C                |   108.40
   11 C                |   9 C                |  15 C                |   112.02
    9 C                |  11 C                |  12 H                |   109.54
    9 C                |  11 C                |  13 H                |   109.98
    9 C                |  11 C                |  14 H                |   109.99
   12 H                |  11 C                |  13 H                |   108.93
   12 H                |  11 C                |  14 H                |   108.90
   13 H                |  11 C                |  14 H                |   109.47
    9 C                |  15 C                |  16 O                |   120.44
    9 C                |  15 C                |  17 N                |   116.72
   16 O                |  15 C                |  17 N                |   122.84
   15 C                |  17 N                |  18 H                |   117.58
   15 C                |  17 N                |  19 C                |   125.48
   18 H                |  17 N                |  19 C                |   116.64
   17 N                |  19 C                |  20 H                |   106.06
   17 N                |  19 C                |  21 C                |   111.75
   17 N                |  19 C                |  32 C                |   115.13
   20 H                |  19 C                |  21 C                |   106.19
   20 H                |  19 C                |  32 C                |   104.50
   21 C                |  19 C                |  32 C                |   112.32
   19 C                |  21 C                |  22 H                |   109.28
   19 C                |  21 C                |  23 H                |   108.71
   19 C                |  21 C                |  24 C                |   114.32
   22 H                |  21 C                |  23 H                |   107.75
   22 H                |  21 C                |  24 C                |   108.37
   23 H                |  21 C                |  24 C                |   108.21
   21 C                |  24 C                |  25 H                |   109.01
   21 C                |  24 C                |  26 H                |   107.82
   21 C                |  24 C                |  27 S                |   115.17
   25 H                |  24 C                |  26 H                |   107.55
   25 H                |  24 C                |  27 S                |   108.77
   26 H                |  24 C                |  27 S                |   108.26
   24 C                |  27 S                |  28 C                |    99.64
   27 S                |  28 C                |  29 H                |   109.44
   27 S                |  28 C                |  30 H                |   109.69
   27 S                |  28 C                |  31 H                |   109.59
   29 H                |  28 C                |  30 H                |   109.40
   29 H                |  28 C                |  31 H                |   109.21
   30 H                |  28 C                |  31 H                |   109.49
   19 C                |  32 C                |  33 O                |   120.58
   19 C                |  32 C                |  34 N                |   119.74
   33 O                |  32 C                |  34 N                |   119.66
   32 C                |  34 N                |  35 H                |   120.79
   32 C                |  34 N                |  36 H                |   118.11
   35 H                |  34 N                |  36 H                |   121.06
 ------------------------------------------------------------------------------
                            number of included internuclear angles:         61
 ==============================================================================



  library name resolved from: environment
  library file name is: </opt/rit/el9/20230413/app/linux-rhel9-x86_64_v3/gcc-11.2.1/nwchem-7.2.0-oxtctbuhfuzyfaoziquq6bki22grib3g/share/nwchem/libraries/>
  


 Summary of "ao basis" -> "" (cartesian)
 ------------------------------------------------------------------------------
       Tag                 Description            Shells   Functions and Types
 ---------------- ------------------------------  ------  ---------------------
 *                        aug-cc-pvdz                 on all atoms 


                      Basis "ao basis" -> "ao basis" (cartesian)
                      -----
  H (Hydrogen)
  ------------
            Exponent  Coefficients 
       -------------- ---------------------------------------------------------
  1 S  1.30100000E+01  0.019685
  1 S  1.96200000E+00  0.137977
  1 S  4.44600000E-01  0.478148

  2 S  1.22000000E-01  1.000000

  3 S  2.97400000E-02  1.000000

  4 P  7.27000000E-01  1.000000

  5 P  1.41000000E-01  1.000000

  C (Carbon)
  ----------
            Exponent  Coefficients 
       -------------- ---------------------------------------------------------
  1 S  6.66500000E+03  0.000692
  1 S  1.00000000E+03  0.005329
  1 S  2.28000000E+02  0.027077
  1 S  6.47100000E+01  0.101718
  1 S  2.10600000E+01  0.274740
  1 S  7.49500000E+00  0.448564
  1 S  2.79700000E+00  0.285074
  1 S  5.21500000E-01  0.015204

  2 S  6.66500000E+03 -0.000146
  2 S  1.00000000E+03 -0.001154
  2 S  2.28000000E+02 -0.005725
  2 S  6.47100000E+01 -0.023312
  2 S  2.10600000E+01 -0.063955
  2 S  7.49500000E+00 -0.149981
  2 S  2.79700000E+00 -0.127262
  2 S  5.21500000E-01  0.544529

  3 S  1.59600000E-01  1.000000

  4 S  4.69000000E-02  1.000000

  5 P  9.43900000E+00  0.038109
  5 P  2.00200000E+00  0.209480
  5 P  5.45600000E-01  0.508557

  6 P  1.51700000E-01  1.000000

  7 P  4.04100000E-02  1.000000

  8 D  5.50000000E-01  1.000000

  9 D  1.51000000E-01  1.000000

  O (Oxygen)
  ----------
            Exponent  Coefficients 
       -------------- ---------------------------------------------------------
  1 S  1.17200000E+04  0.000710
  1 S  1.75900000E+03  0.005470
  1 S  4.00800000E+02  0.027837
  1 S  1.13700000E+02  0.104800
  1 S  3.70300000E+01  0.283062
  1 S  1.32700000E+01  0.448719
  1 S  5.02500000E+00  0.270952
  1 S  1.01300000E+00  0.015458

  2 S  1.17200000E+04 -0.000160
  2 S  1.75900000E+03 -0.001263
  2 S  4.00800000E+02 -0.006267
  2 S  1.13700000E+02 -0.025716
  2 S  3.70300000E+01 -0.070924
  2 S  1.32700000E+01 -0.165411
  2 S  5.02500000E+00 -0.116955
  2 S  1.01300000E+00  0.557368

  3 S  3.02300000E-01  1.000000

  4 S  7.89600000E-02  1.000000

  5 P  1.77000000E+01  0.043018
  5 P  3.85400000E+00  0.228913
  5 P  1.04600000E+00  0.508728

  6 P  2.75300000E-01  1.000000

  7 P  6.85600000E-02  1.000000

  8 D  1.18500000E+00  1.000000

  9 D  3.32000000E-01  1.000000

  N (Nitrogen)
  ------------
            Exponent  Coefficients 
       -------------- ---------------------------------------------------------
  1 S  9.04600000E+03  0.000700
  1 S  1.35700000E+03  0.005389
  1 S  3.09300000E+02  0.027406
  1 S  8.77300000E+01  0.103207
  1 S  2.85600000E+01  0.278723
  1 S  1.02100000E+01  0.448540
  1 S  3.83800000E+00  0.278238
  1 S  7.46600000E-01  0.015440

  2 S  9.04600000E+03 -0.000153
  2 S  1.35700000E+03 -0.001208
  2 S  3.09300000E+02 -0.005992
  2 S  8.77300000E+01 -0.024544
  2 S  2.85600000E+01 -0.067459
  2 S  1.02100000E+01 -0.158078
  2 S  3.83800000E+00 -0.121831
  2 S  7.46600000E-01  0.549003

  3 S  2.24800000E-01  1.000000

  4 S  6.12400000E-02  1.000000

  5 P  1.35500000E+01  0.039919
  5 P  2.91700000E+00  0.217169
  5 P  7.97300000E-01  0.510319

  6 P  2.18500000E-01  1.000000

  7 P  5.61100000E-02  1.000000

  8 D  8.17000000E-01  1.000000

  9 D  2.30000000E-01  1.000000

  S (Sulphur)
  -----------
            Exponent  Coefficients 
       -------------- ---------------------------------------------------------
  1 S  1.10800000E+05  0.000248
  1 S  1.66100000E+04  0.001920
  1 S  3.78100000E+03  0.009962
  1 S  1.07100000E+03  0.040298
  1 S  3.49800000E+02  0.128604
  1 S  1.26300000E+02  0.303480
  1 S  4.92600000E+01  0.421432
  1 S  2.01600000E+01  0.230781
  1 S  5.72000000E+00  0.017897
  1 S  2.18200000E+00 -0.002975
  1 S  4.32700000E-01  0.000850

  2 S  1.10800000E+05 -0.000069
  2 S  1.66100000E+04 -0.000528
  2 S  3.78100000E+03 -0.002797
  2 S  1.07100000E+03 -0.011265
  2 S  3.49800000E+02 -0.038883
  2 S  1.26300000E+02 -0.099503
  2 S  4.92600000E+01 -0.199740
  2 S  2.01600000E+01 -0.123360
  2 S  5.72000000E+00  0.513194
  2 S  2.18200000E+00  0.607120
  2 S  4.32700000E-01  0.039675

  3 S  1.10800000E+05  0.000020
  3 S  1.66100000E+04  0.000153
  3 S  3.78100000E+03  0.000810
  3 S  1.07100000E+03  0.003290
  3 S  3.49800000E+02  0.011297
  3 S  1.26300000E+02  0.029639
  3 S  4.92600000E+01  0.059985
  3 S  2.01600000E+01  0.041325
  3 S  5.72000000E+00 -0.207474
  3 S  2.18200000E+00 -0.392889
  3 S  4.32700000E-01  0.632840

  4 S  1.57000000E-01  1.000000

  5 S  5.07000000E-02  1.000000

  6 P  3.99700000E+02  0.004475
  6 P  9.41900000E+01  0.034171
  6 P  2.97500000E+01  0.144250
  6 P  1.07700000E+01  0.353928
  6 P  4.11900000E+00  0.459085
  6 P  1.62500000E+00  0.206383
  6 P  4.72600000E-01  0.010214

  7 P  3.99700000E+02 -0.001163
  7 P  9.41900000E+01 -0.008657
  7 P  2.97500000E+01 -0.039089
  7 P  1.07700000E+01 -0.093463
  7 P  4.11900000E+00 -0.147994
  7 P  1.62500000E+00  0.030190
  7 P  4.72600000E-01  0.561573

  8 P  1.40700000E-01  1.000000

  9 P  3.99000000E-02  1.000000

 10 D  4.79000000E-01  1.000000

 11 D  1.52000000E-01  1.000000



 Summary of "ao basis" -> "ao basis" (cartesian)
 ------------------------------------------------------------------------------
       Tag                 Description            Shells   Functions and Types
 ---------------- ------------------------------  ------  ---------------------
 H                        aug-cc-pvdz                5        9   3s2p
 C                        aug-cc-pvdz                9       25   4s3p2d
 O                        aug-cc-pvdz                9       25   4s3p2d
 N                        aug-cc-pvdz                9       25   4s3p2d
 S                        aug-cc-pvdz               11       29   5s4p2d


                                 NWChem SCF Module
                                 -----------------



  ao basis        = "ao basis"
  functions       =   600
  atoms           =    36
  closed shells   =    70
  open shells     =     0
  charge          =   0.00
  wavefunction    = RHF 
  input vectors   = atomic
  output vectors  = ./ALA_MET_3.movecs
  use symmetry    = F
  symmetry adapt  = F


 Summary of "ao basis" -> "ao basis" (cartesian)
 ------------------------------------------------------------------------------
       Tag                 Description            Shells   Functions and Types
 ---------------- ------------------------------  ------  ---------------------
 H                        aug-cc-pvdz                5        9   3s2p
 C                        aug-cc-pvdz                9       25   4s3p2d
 O                        aug-cc-pvdz                9       25   4s3p2d
 N                        aug-cc-pvdz                9       25   4s3p2d
 S                        aug-cc-pvdz               11       29   5s4p2d



 Forming initial guess at       1.1s


 !! The overlap matrix has   5 vectors deemed linearly dependent with
    eigenvalues:
 2.79D-06 3.47D-06 7.10D-06 7.29D-06 9.18D-06


      Superposition of Atomic Density Guess
      -------------------------------------

 Sum of atomic energies:       -1170.84498976

      Non-variational initial energy
      ------------------------------

 Total energy =   -1181.652427
 1-e energy   =   -4441.388368
 2-e energy   =    1830.223527
 HOMO         =      -0.263634
 LUMO         =       0.011025


 Starting SCF solution at     211.5s



 ----------------------------------------------
         Quadratically convergent ROHF

 Convergence threshold     :          1.000E-04
 Maximum no. of iterations :           30
 Final Fock-matrix accuracy:          1.000E-10
 ----------------------------------------------


              iter       energy          gnorm     gmax       time
             ----- ------------------- --------- --------- --------
                 1    -1175.0043234411  2.41D+00  1.18D-01    468.8
                 2    -1175.3219244265  8.38D-01  4.10D-02    959.4
                 3    -1175.3837700997  6.52D-02  3.67D-03   1615.4
                 4    -1175.3844073046  4.19D-03  3.44D-04   2543.6
                 5    -1175.3844106098  8.77D-06  4.58D-07   4126.0


       Final RHF  results 
       ------------------ 

         Total SCF energy =  -1175.384410609827
      One-electron energy =  -4454.169132707155
      Two-electron energy =   1849.272308057821
 Nuclear repulsion energy =   1429.512414039507

        Time for solution =   3920.3s


             Final eigenvalues
             -----------------

              1      
    1  -91.9500
    2  -20.5454
    3  -20.5353
    4  -20.5042
    5  -15.6179
    6  -15.6084
    7  -15.5672
    8  -11.3745
    9  -11.3667
   10  -11.3430
   11  -11.3138
   12  -11.2968
   13  -11.2661
   14  -11.2639
   15  -11.2607
   16  -11.2557
   17  -11.2364
   18   -8.9510
   19   -6.6333
   20   -6.6321
   21   -6.6300
   22   -1.4094
   23   -1.3923
   24   -1.3663
   25   -1.2654
   26   -1.2520
   27   -1.1937
   28   -1.0955
   29   -1.0761
   30   -1.0339
   31   -1.0085
   32   -0.9683
   33   -0.9066
   34   -0.8697
   35   -0.8325
   36   -0.8101
   37   -0.7971
   38   -0.7577
   39   -0.7406
   40   -0.7248
   41   -0.7003
   42   -0.6880
   43   -0.6705
   44   -0.6469
   45   -0.6321
   46   -0.6293
   47   -0.6142
   48   -0.6015
   49   -0.5961
   50   -0.5957
   51   -0.5882
   52   -0.5843
   53   -0.5813
   54   -0.5620
   55   -0.5580
   56   -0.5529
   57   -0.5408
   58   -0.5371
   59   -0.5224
   60   -0.5085
   61   -0.4982
   62   -0.4804
   63   -0.4461
   64   -0.4438
   65   -0.4355
   66   -0.4201
   67   -0.4100
   68   -0.3914
   69   -0.3840
   70   -0.3397
   71    0.0209
   72    0.0307
   73    0.0389
   74    0.0397
   75    0.0480
   76    0.0500
   77    0.0533
   78    0.0591
   79    0.0635
   80    0.0684

                       ROHF Final Molecular Orbital Analysis
                       -------------------------------------

 Vector   22  Occ=2.000000D+00  E=-1.409368D+00
              MO Center=  9.7D-02,  2.8D+00, -6.8D-01, r^2= 2.0D+00
   Bfn.  Coefficient  Atom+Function         Bfn.  Coefficient  Atom+Function  
  ----- ------------  ---------------      ----- ------------  ---------------
    80      0.331044   6 O  s                79      0.323093   6 O  s         
    54      0.229277   5 C  s                12      0.194576   2 C  s         

 Vector   23  Occ=2.000000D+00  E=-1.392301D+00
              MO Center=  5.0D-02,  9.8D-01,  7.4D-01, r^2= 2.3D+00
   Bfn.  Coefficient  Atom+Function         Bfn.  Coefficient  Atom+Function  
  ----- ------------  ---------------      ----- ------------  ---------------
   250      0.348474  16 O  s               249      0.323582  16 O  s         
   224      0.229457  15 C  s         

 Vector   24  Occ=2.000000D+00  E=-1.366258D+00
              MO Center= -3.1D+00, -3.7D-01,  2.3D-01, r^2= 1.2D+00
   Bfn.  Coefficient  Atom+Function         Bfn.  Coefficient  Atom+Function  
  ----- ------------  ---------------      ----- ------------  ---------------
   535      0.376958  33 O  s               534      0.349295  33 O  s         
   509      0.245099  32 C  s         

 Vector   25  Occ=2.000000D+00  E=-1.265400D+00
              MO Center=  1.1D+00,  2.8D+00, -9.2D-02, r^2= 1.7D+00
   Bfn.  Coefficient  Atom+Function         Bfn.  Coefficient  Atom+Function  
  ----- ------------  ---------------      ----- ------------  ---------------
   105      0.423633   7 N  s               104      0.342928   7 N  s         
    80     -0.218730   6 O  s                79     -0.183110   6 O  s         
   128      0.157252   8 H  s               139     -0.156527   9 C  s         
    57      0.152062   5 C  px        

 Vector   26  Occ=2.000000D+00  E=-1.251983D+00
              MO Center= -1.8D-01, -4.0D-02, -6.1D-02, r^2= 2.0D+00
   Bfn.  Coefficient  Atom+Function         Bfn.  Coefficient  Atom+Function  
  ----- ------------  ---------------      ----- ------------  ---------------
   275      0.365789  17 N  s               274      0.340504  17 N  s         
   250     -0.224012  16 O  s               249     -0.177246  16 O  s         
   229     -0.167608  15 C  pz              298      0.156812  18 H  s         

 Vector   27  Occ=2.000000D+00  E=-1.193671D+00
              MO Center= -2.5D+00,  7.0D-01, -1.9D-01, r^2= 1.5D+00
   Bfn.  Coefficient  Atom+Function         Bfn.  Coefficient  Atom+Function  
  ----- ------------  ---------------      ----- ------------  ---------------
   560      0.391890  34 N  s               559      0.369279  34 N  s         
   535     -0.206420  33 O  s               513      0.185807  32 C  py        
   534     -0.174360  33 O  s               309     -0.170592  19 C  s         
   583      0.163273  35 H  s               592      0.158866  36 H  s         
   516     -0.153758  32 C  py        

 Vector   28  Occ=2.000000D+00  E=-1.095545D+00
              MO Center=  1.8D-01, -1.8D+00,  2.5D-01, r^2= 6.7D+00
   Bfn.  Coefficient  Atom+Function         Bfn.  Coefficient  Atom+Function  
  ----- ------------  ---------------      ----- ------------  ---------------
   385      0.205450  24 C  s               342      0.189477  21 C  s         
   429      0.179906  27 S  s         

 Vector   29  Occ=2.000000D+00  E=-1.076053D+00
              MO Center=  1.4D+00,  9.0D-01,  1.2D-01, r^2= 9.3D+00
   Bfn.  Coefficient  Atom+Function         Bfn.  Coefficient  Atom+Function  
  ----- ------------  ---------------      ----- ------------  ---------------
   138      0.214163   9 C  s               172      0.194184  11 C  s         

 Vector   30  Occ=2.000000D+00  E=-1.033948D+00
              MO Center=  2.9D-01, -2.1D+00, -1.5D-01, r^2= 9.2D+00
   Bfn.  Coefficient  Atom+Function         Bfn.  Coefficient  Atom+Function  
  ----- ------------  ---------------      ----- ------------  ---------------
   457     -0.201149  28 C  s               429     -0.193947  27 S  s         
   308      0.188798  19 C  s               342      0.161333  21 C  s         

 Vector   31  Occ=2.000000D+00  E=-1.008476D+00
              MO Center=  7.8D-01,  3.8D+00, -6.3D-02, r^2= 6.0D+00
   Bfn.  Coefficient  Atom+Function         Bfn.  Coefficient  Atom+Function  
  ----- ------------  ---------------      ----- ------------  ---------------
    11      0.314668   2 C  s               174      0.189654  11 C  s         
   172      0.168905  11 C  s                58      0.165514   5 C  py        

 Vector   32  Occ=2.000000D+00  E=-9.683098D-01
              MO Center=  3.3D-01, -2.1D+00,  1.1D-01, r^2= 7.7D+00
   Bfn.  Coefficient  Atom+Function         Bfn.  Coefficient  Atom+Function  
  ----- ------------  ---------------      ----- ------------  ---------------
   385     -0.200151  24 C  s               457      0.195668  28 C  s         
   308      0.190173  19 C  s               144      0.161815   9 C  px        

 Vector   33  Occ=2.000000D+00  E=-9.066364D-01
              MO Center=  1.5D+00,  7.7D-01,  3.1D-01, r^2= 7.5D+00
   Bfn.  Coefficient  Atom+Function         Bfn.  Coefficient  Atom+Function  
  ----- ------------  ---------------      ----- ------------  ---------------
   144      0.327429   9 C  px              139     -0.287845   9 C  s         
   172      0.222874  11 C  s               138     -0.186204   9 C  s         
   231      0.168467  15 C  py              158      0.164054   9 C  dxz       
   230      0.163310  15 C  px              225      0.160228  15 C  s         

 Vector   34  Occ=2.000000D+00  E=-8.697241D-01
              MO Center=  2.3D-01, -2.2D+00,  6.8D-02, r^2= 9.1D+00
   Bfn.  Coefficient  Atom+Function         Bfn.  Coefficient  Atom+Function  
  ----- ------------  ---------------      ----- ------------  ---------------
   429     -0.211462  27 S  s               430     -0.208744  27 S  s         
   342      0.201912  21 C  s               457      0.172583  28 C  s         
   458      0.160387  28 C  s         

 Vector   35  Occ=2.000000D+00  E=-8.324548D-01
              MO Center=  4.6D-01,  2.0D+00, -7.9D-02, r^2= 6.8D+00
   Bfn.  Coefficient  Atom+Function         Bfn.  Coefficient  Atom+Function  
  ----- ------------  ---------------      ----- ------------  ---------------
   107      0.230102   7 N  px               54     -0.183193   5 C  s         
   128      0.181035   8 H  s               309     -0.167003  19 C  s         
   139     -0.160588   9 C  s               109      0.158293   7 N  pz        

 Vector   36  Occ=2.000000D+00  E=-8.100642D-01
              MO Center= -1.9D-03,  1.2D+00, -1.2D-01, r^2= 6.0D+00
   Bfn.  Coefficient  Atom+Function         Bfn.  Coefficient  Atom+Function  
  ----- ------------  ---------------      ----- ------------  ---------------
   128      0.211961   8 H  s               279      0.207941  17 N  pz        
   309      0.191522  19 C  s               298     -0.176945  18 H  s         
   109      0.164655   7 N  pz              105      0.161660   7 N  s         
   107      0.161547   7 N  px        

 Vector   37  Occ=2.000000D+00  E=-7.970607D-01
              MO Center= -1.2D-01, -2.2D+00,  8.4D-02, r^2= 8.1D+00
   Bfn.  Coefficient  Atom+Function         Bfn.  Coefficient  Atom+Function  
  ----- ------------  ---------------      ----- ------------  ---------------
   430      0.334750  27 S  s               386     -0.295689  24 C  s         
   429      0.260205  27 S  s               343      0.190566  21 C  s         
   385     -0.179989  24 C  s               563      0.165410  34 N  py        
   418     -0.152209  26 H  s               409     -0.150862  25 H  s         
   511      0.150451  32 C  s         

 Vector   38  Occ=2.000000D+00  E=-7.577214D-01
              MO Center= -1.1D+00, -3.5D-01, -1.2D-02, r^2= 6.3D+00
   Bfn.  Coefficient  Atom+Function         Bfn.  Coefficient  Atom+Function  
  ----- ------------  ---------------      ----- ------------  ---------------
   343      0.274431  21 C  s               563     -0.246686  34 N  py        
   386     -0.217218  24 C  s               298      0.202628  18 H  s         
   583     -0.186544  35 H  s               516      0.178911  32 C  py        
   279     -0.174055  17 N  pz              513      0.154090  32 C  py        
   535     -0.151271  33 O  s         

 Vector   39  Occ=2.000000D+00  E=-7.406164D-01
              MO Center=  6.1D-01,  1.1D+00,  5.0D-02, r^2= 5.3D+00
   Bfn.  Coefficient  Atom+Function         Bfn.  Coefficient  Atom+Function  
  ----- ------------  ---------------      ----- ------------  ---------------
   225      0.295666  15 C  s               145      0.260512   9 C  py        
    55      0.191609   5 C  s               163      0.171469  10 H  s         
   227     -0.170221  15 C  px              279      0.169370  17 N  pz        
   109     -0.162417   7 N  pz              246      0.162610  15 C  dyz       
   142      0.161400   9 C  py              108     -0.153199   7 N  py        

 Vector   40  Occ=2.000000D+00  E=-7.248013D-01
              MO Center= -1.3D+00,  8.4D-01, -1.6D-01, r^2= 5.7D+00
   Bfn.  Coefficient  Atom+Function         Bfn.  Coefficient  Atom+Function  
  ----- ------------  ---------------      ----- ------------  ---------------
   562      0.283270  34 N  px              583      0.240396  35 H  s         
   314     -0.200857  19 C  px              584      0.189467  35 H  s         
   592     -0.188008  36 H  s               343      0.182979  21 C  s         

 Vector   41  Occ=2.000000D+00  E=-7.002538D-01
              MO Center=  8.9D-01,  2.4D+00, -2.0D-02, r^2= 5.8D+00
   Bfn.  Coefficient  Atom+Function         Bfn.  Coefficient  Atom+Function  
  ----- ------------  ---------------      ----- ------------  ---------------
   139      0.291119   9 C  s               162      0.190542  10 H  s         
   231     -0.182756  15 C  py               58      0.177699   5 C  py        
   145     -0.172824   9 C  py              108      0.170102   7 N  py        
    15     -0.164686   2 C  py               18     -0.165225   2 C  py        
   230     -0.161958  15 C  px        

 Vector   42  Occ=2.000000D+00  E=-6.879962D-01
              MO Center= -2.8D-01,  2.2D+00, -4.9D-01, r^2= 7.2D+00
   Bfn.  Coefficient  Atom+Function         Bfn.  Coefficient  Atom+Function  
  ----- ------------  ---------------      ----- ------------  ---------------
    80      0.218353   6 O  s                83     -0.207521   6 O  py        
    57      0.194303   5 C  px              562     -0.176122  34 N  px        
    84     -0.174743   6 O  pz               18      0.172784   2 C  py        
   343     -0.150898  21 C  s         

 Vector   43  Occ=2.000000D+00  E=-6.704776D-01
              MO Center= -7.7D-01,  5.1D-01, -8.5D-02, r^2= 8.1D+00
   Bfn.  Coefficient  Atom+Function         Bfn.  Coefficient  Atom+Function  
  ----- ------------  ---------------      ----- ------------  ---------------
   139      0.378329   9 C  s               225     -0.279565  15 C  s         
   145     -0.224759   9 C  py              311      0.189424  19 C  px        
   513      0.185960  32 C  py              592     -0.177502  36 H  s         
   278     -0.156068  17 N  py              562      0.151039  34 N  px        

 Vector   44  Occ=2.000000D+00  E=-6.468933D-01
              MO Center= -7.2D-01, -2.8D-01,  4.1D-01, r^2= 8.8D+00
   Bfn.  Coefficient  Atom+Function         Bfn.  Coefficient  Atom+Function  
  ----- ------------  ---------------      ----- ------------  ---------------
   225      0.379993  15 C  s               139     -0.276702   9 C  s         
   254     -0.186390  16 O  pz              313     -0.170676  19 C  pz        
   346     -0.171145  21 C  py              333      0.167871  20 H  s         
   145      0.159872   9 C  py              537     -0.153165  33 O  px        
   332      0.150804  20 H  s         

 Vector   45  Occ=2.000000D+00  E=-6.320657D-01
              MO Center=  2.8D-01,  2.3D+00, -3.7D-02, r^2= 1.1D+01
   Bfn.  Coefficient  Atom+Function         Bfn.  Coefficient  Atom+Function  
  ----- ------------  ---------------      ----- ------------  ---------------
    16      0.195619   2 C  pz               35     -0.186664   3 H  s         
     1      0.176060   1 H  s               139      0.172024   9 C  s         
    59      0.168444   5 C  pz        

 Vector   46  Occ=2.000000D+00  E=-6.293486D-01
              MO Center= -4.2D-01, -6.7D-01,  2.5D-01, r^2= 9.3D+00
   Bfn.  Coefficient  Atom+Function         Bfn.  Coefficient  Atom+Function  
  ----- ------------  ---------------      ----- ------------  ---------------
   312      0.196621  19 C  py              309     -0.172853  19 C  s         
   277     -0.170250  17 N  px              343      0.169691  21 C  s         
   418      0.158112  26 H  s               389     -0.156192  24 C  py        
   347      0.152442  21 C  pz        

 Vector   47  Occ=2.000000D+00  E=-6.142003D-01
              MO Center=  4.5D-01,  4.6D-01,  7.7D-01, r^2= 9.0D+00
   Bfn.  Coefficient  Atom+Function         Bfn.  Coefficient  Atom+Function  
  ----- ------------  ---------------      ----- ------------  ---------------
   254      0.316325  16 O  pz              229     -0.222498  15 C  pz        
   250      0.222534  16 O  s               206     -0.161970  13 H  s         
   257      0.159770  16 O  pz              205     -0.153151  13 H  s         

 Vector   48  Occ=2.000000D+00  E=-6.015188D-01
              MO Center=  6.3D-01,  2.4D+00, -1.5D-01, r^2= 8.0D+00
   Bfn.  Coefficient  Atom+Function         Bfn.  Coefficient  Atom+Function  
  ----- ------------  ---------------      ----- ------------  ---------------
   139     -0.258355   9 C  s                58      0.248464   5 C  py        
    82     -0.224413   6 O  px               84     -0.206549   6 O  pz        
   145      0.190808   9 C  py               15     -0.182654   2 C  py        
   225      0.174097  15 C  s               176      0.164804  11 C  py        
   197     -0.157063  12 H  s                80      0.150301   6 O  s         

 Vector   49  Occ=2.000000D+00  E=-5.960661D-01
              MO Center=  1.2D+00, -3.4D+00, -3.4D-01, r^2= 8.9D+00
   Bfn.  Coefficient  Atom+Function         Bfn.  Coefficient  Atom+Function  
  ----- ------------  ---------------      ----- ------------  ---------------
   481     -0.282337  29 H  s               482     -0.282638  29 H  s         
   462      0.268967  28 C  pz              461      0.225307  28 C  py        
   490      0.225044  30 H  s         

 Vector   50  Occ=2.000000D+00  E=-5.957071D-01
              MO Center=  5.4D-01, -1.5D+00,  1.1D-01, r^2= 1.3D+01
   Bfn.  Coefficient  Atom+Function         Bfn.  Coefficient  Atom+Function  
  ----- ------------  ---------------      ----- ------------  ---------------
   462      0.233865  28 C  pz              225      0.216484  15 C  s         
   499      0.207272  31 H  s               144      0.173962   9 C  px        
   139     -0.168747   9 C  s               537      0.150512  33 O  px        

 Vector   51  Occ=2.000000D+00  E=-5.882133D-01
              MO Center=  8.7D-01,  2.3D+00, -4.6D-02, r^2= 1.5D+01
   Bfn.  Coefficient  Atom+Function         Bfn.  Coefficient  Atom+Function  
  ----- ------------  ---------------      ----- ------------  ---------------
    44      0.249997   4 H  s                45      0.227313   4 H  s         
    16     -0.221872   2 C  pz              196      0.202927  12 H  s         
   176     -0.200413  11 C  py               14     -0.198321   2 C  px        
   139      0.191262   9 C  s               197      0.192093  12 H  s         
     1     -0.160410   1 H  s         

 Vector   52  Occ=2.000000D+00  E=-5.843173D-01
              MO Center=  1.3D+00, -1.8D+00,  1.6D-01, r^2= 1.4D+01
   Bfn.  Coefficient  Atom+Function         Bfn.  Coefficient  Atom+Function  
  ----- ------------  ---------------      ----- ------------  ---------------
   490      0.218630  30 H  s               461      0.213390  28 C  py        
   499     -0.196158  31 H  s               205     -0.181773  13 H  s         
   460      0.170793  28 C  px              197      0.153892  12 H  s         

 Vector   53  Occ=2.000000D+00  E=-5.812833D-01
              MO Center= -7.2D-01,  5.1D-01,  1.5D-01, r^2= 1.2D+01
   Bfn.  Coefficient  Atom+Function         Bfn.  Coefficient  Atom+Function  
  ----- ------------  ---------------      ----- ------------  ---------------
   537      0.200474  33 O  px              144     -0.163649   9 C  px        
   139      0.160433   9 C  s                14      0.152685   2 C  px        

 Vector   54  Occ=2.000000D+00  E=-5.619936D-01
              MO Center= -1.2D+00, -6.2D-01,  1.3D-01, r^2= 1.1D+01
   Bfn.  Coefficient  Atom+Function         Bfn.  Coefficient  Atom+Function  
  ----- ------------  ---------------      ----- ------------  ---------------
   539      0.251250  33 O  pz              564      0.196875  34 N  pz        
   512      0.184185  32 C  px              542      0.174205  33 O  pz        
   482      0.160772  29 H  s               514      0.158723  32 C  pz        
   333     -0.150714  20 H  s         

 Vector   55  Occ=2.000000D+00  E=-5.579567D-01
              MO Center=  1.4D+00,  1.8D+00,  2.7D-01, r^2= 9.8D+00
   Bfn.  Coefficient  Atom+Function         Bfn.  Coefficient  Atom+Function  
  ----- ------------  ---------------      ----- ------------  ---------------
   197      0.292285  12 H  s               176     -0.249572  11 C  py        
    55     -0.232512   5 C  s               196      0.213680  12 H  s         
    44     -0.204604   4 H  s                12      0.201979   2 C  s         
   205     -0.202238  13 H  s               206     -0.185444  13 H  s         
    73      0.172607   5 C  dxy       

 Vector   56  Occ=2.000000D+00  E=-5.528793D-01
              MO Center=  1.4D+00,  1.6D+00,  3.6D-01, r^2= 8.7D+00
   Bfn.  Coefficient  Atom+Function         Bfn.  Coefficient  Atom+Function  
  ----- ------------  ---------------      ----- ------------  ---------------
   177      0.254090  11 C  pz              214      0.252436  14 H  s         
   215      0.236021  14 H  s               163      0.201576  10 H  s         
   162      0.157917  10 H  s                14     -0.155629   2 C  px        
   143     -0.150977   9 C  pz        

 Vector   57  Occ=2.000000D+00  E=-5.407864D-01
              MO Center=  3.7D-01, -1.6D-01,  2.7D-01, r^2= 1.1D+01
   Bfn.  Coefficient  Atom+Function         Bfn.  Coefficient  Atom+Function  
  ----- ------------  ---------------      ----- ------------  ---------------
   343      0.287069  21 C  s               309     -0.203795  19 C  s         
   174     -0.188890  11 C  s               419     -0.185299  26 H  s         
   418     -0.183616  26 H  s               141      0.180055   9 C  px        
   175     -0.178725  11 C  px              389      0.154034  24 C  py        

 Vector   58  Occ=2.000000D+00  E=-5.370924D-01
              MO Center= -1.6D-01,  6.0D-01,  1.1D-01, r^2= 1.1D+01
   Bfn.  Coefficient  Atom+Function         Bfn.  Coefficient  Atom+Function  
  ----- ------------  ---------------      ----- ------------  ---------------
   312     -0.156006  19 C  py        

 Vector   59  Occ=2.000000D+00  E=-5.224411D-01
              MO Center=  4.8D-01,  1.4D+00, -6.8D-02, r^2= 9.2D+00
   Bfn.  Coefficient  Atom+Function         Bfn.  Coefficient  Atom+Function  
  ----- ------------  ---------------      ----- ------------  ---------------
   143      0.206291   9 C  pz              162     -0.183361  10 H  s         
    84     -0.176912   6 O  pz              163     -0.174590  10 H  s         
   177     -0.168221  11 C  pz              178     -0.165942  11 C  px        
   174     -0.155699  11 C  s         

 Vector   60  Occ=2.000000D+00  E=-5.084959D-01
              MO Center= -7.8D-01, -1.9D+00,  4.8D-01, r^2= 5.2D+00
   Bfn.  Coefficient  Atom+Function         Bfn.  Coefficient  Atom+Function  
  ----- ------------  ---------------      ----- ------------  ---------------
   376      0.340727  23 H  s               345     -0.276902  21 C  px        
   367     -0.274739  22 H  s               375      0.255557  23 H  s         
   388      0.222750  24 C  px              276      0.191386  17 N  s         
   333     -0.178875  20 H  s               409      0.155772  25 H  s         
   430     -0.154175  27 S  s               482      0.151234  29 H  s         

 Vector   61  Occ=2.000000D+00  E=-4.982279D-01
              MO Center= -7.5D-01, -1.1D+00,  4.8D-01, r^2= 6.1D+00
   Bfn.  Coefficient  Atom+Function         Bfn.  Coefficient  Atom+Function  
  ----- ------------  ---------------      ----- ------------  ---------------
   346      0.233766  21 C  py              313      0.231029  19 C  pz        
   419      0.223732  26 H  s               375     -0.183548  23 H  s         
   343     -0.173464  21 C  s               309      0.171848  19 C  s         
   389     -0.160126  24 C  py              316      0.155558  19 C  pz        

 Vector   62  Occ=2.000000D+00  E=-4.804412D-01
              MO Center=  1.5D-01, -2.9D+00,  2.1D-01, r^2= 5.5D+00
   Bfn.  Coefficient  Atom+Function         Bfn.  Coefficient  Atom+Function  
  ----- ------------  ---------------      ----- ------------  ---------------
   463     -0.204357  28 C  px              366     -0.201751  22 H  s         
   460     -0.200045  28 C  px              388     -0.195672  24 C  px        
   435      0.193299  27 S  px              345      0.186169  21 C  px        
   436     -0.179976  27 S  py              367     -0.177825  22 H  s         
   347     -0.171579  21 C  pz              389      0.160629  24 C  py        

 Vector   63  Occ=2.000000D+00  E=-4.460602D-01
              MO Center=  1.8D-01,  1.6D+00,  3.3D-01, r^2= 5.1D+00
   Bfn.  Coefficient  Atom+Function         Bfn.  Coefficient  Atom+Function  
  ----- ------------  ---------------      ----- ------------  ---------------
   252      0.302045  16 O  px              253      0.233024  16 O  py        
   255      0.231227  16 O  px              109     -0.229092   7 N  pz        
    84      0.204786   6 O  pz              107      0.187798   7 N  px        
   112     -0.187807   7 N  pz              256      0.180384  16 O  py        
   110      0.173295   7 N  px               82     -0.166886   6 O  px        

 Vector   64  Occ=2.000000D+00  E=-4.437868D-01
              MO Center= -6.3D-02,  3.0D+00, -7.9D-01, r^2= 3.7D+00
   Bfn.  Coefficient  Atom+Function         Bfn.  Coefficient  Atom+Function  
  ----- ------------  ---------------      ----- ------------  ---------------
    83      0.447035   6 O  py               86      0.357278   6 O  py        
   511     -0.269094  32 C  s                82     -0.253789   6 O  px        
    13      0.218087   2 C  s                18      0.213250   2 C  py        
    85     -0.210436   6 O  px               15      0.205746   2 C  py        
   276      0.150795  17 N  s         

 Vector   65  Occ=2.000000D+00  E=-4.354820D-01
              MO Center= -1.2D-01, -1.6D+00, -1.3D-01, r^2= 9.4D+00
   Bfn.  Coefficient  Atom+Function         Bfn.  Coefficient  Atom+Function  
  ----- ------------  ---------------      ----- ------------  ---------------
   430      0.334918  27 S  s               437     -0.260584  27 S  pz        
   253      0.236732  16 O  py              538     -0.192084  33 O  py        
   256      0.190201  16 O  py              482     -0.177863  29 H  s         
   463      0.171829  28 C  px              390      0.165348  24 C  pz        
   435     -0.159511  27 S  px              393      0.155823  24 C  pz        

 Vector   66  Occ=2.000000D+00  E=-4.200529D-01
              MO Center= -6.7D-01, -1.7D+00,  4.1D-02, r^2= 8.0D+00
   Bfn.  Coefficient  Atom+Function         Bfn.  Coefficient  Atom+Function  
  ----- ------------  ---------------      ----- ------------  ---------------
   333      0.269439  20 H  s               430     -0.260049  27 S  s         
   437      0.246152  27 S  pz              538     -0.244051  33 O  py        
   367      0.239023  22 H  s               343      0.223264  21 C  s         
   253      0.197522  16 O  py              309     -0.198160  19 C  s         
   541     -0.191551  33 O  py              393     -0.158825  24 C  pz        

 Vector   67  Occ=2.000000D+00  E=-4.100059D-01
              MO Center=  4.6D-01,  1.8D+00,  1.9D-01, r^2= 4.9D+00
   Bfn.  Coefficient  Atom+Function         Bfn.  Coefficient  Atom+Function  
  ----- ------------  ---------------      ----- ------------  ---------------
   252      0.268969  16 O  px              109      0.244982   7 N  pz        
   107     -0.227562   7 N  px              112      0.221146   7 N  pz        
   255      0.215829  16 O  px              174      0.207587  11 C  s         
   234     -0.203599  15 C  py              110     -0.198344   7 N  px        
    84     -0.181712   6 O  pz              206     -0.167685  13 H  s         

 Vector   68  Occ=2.000000D+00  E=-3.914478D-01
              MO Center= -2.3D+00, -1.3D-01,  1.1D-01, r^2= 4.0D+00
   Bfn.  Coefficient  Atom+Function         Bfn.  Coefficient  Atom+Function  
  ----- ------------  ---------------      ----- ------------  ---------------
   537      0.242477  33 O  px              539      0.243632  33 O  pz        
   564     -0.229063  34 N  pz              538     -0.226950  33 O  py        
   567     -0.208964  34 N  pz              344     -0.198029  21 C  s         
   318     -0.195842  19 C  py              542      0.195902  33 O  pz        
   540      0.185413  33 O  px              541     -0.185114  33 O  py        

 Vector   69  Occ=2.000000D+00  E=-3.840493D-01
              MO Center= -2.2D+00,  1.0D-01,  1.3D-01, r^2= 4.0D+00
   Bfn.  Coefficient  Atom+Function         Bfn.  Coefficient  Atom+Function  
  ----- ------------  ---------------      ----- ------------  ---------------
   564      0.346944  34 N  pz              567      0.294568  34 N  pz        
   539     -0.285672  33 O  pz              538     -0.242006  33 O  py        
   542     -0.223246  33 O  pz              541     -0.190747  33 O  py        
   278      0.155613  17 N  py        

 Vector   70  Occ=2.000000D+00  E=-3.397370D-01
              MO Center=  5.8D-01, -3.7D+00, -6.4D-01, r^2= 2.2D+00
   Bfn.  Coefficient  Atom+Function         Bfn.  Coefficient  Atom+Function  
  ----- ------------  ---------------      ----- ------------  ---------------
   439      0.411981  27 S  py              436      0.406395  27 S  py        
   435      0.276140  27 S  px              438      0.265490  27 S  px        
   410     -0.248589  25 H  s               440     -0.196258  27 S  pz        
   343     -0.188513  21 C  s               437     -0.181630  27 S  pz        
   419      0.153044  26 H  s               500      0.152628  31 H  s         

 Vector   71  Occ=0.000000D+00  E= 2.087059D-02
              MO Center=  3.8D+00,  3.0D+00,  5.5D-02, r^2= 2.2D+01
   Bfn.  Coefficient  Atom+Function         Bfn.  Coefficient  Atom+Function  
  ----- ------------  ---------------      ----- ------------  ---------------
   233     -3.014968  15 C  px              207      2.793669  13 H  s         
    56     -2.522714   5 C  s               106      2.450727   7 N  s         
   511     -1.971867  32 C  s               173     -1.712878  11 C  s         
   310     -1.547520  19 C  s                37      1.469276   3 H  s         
   206      1.419119  13 H  s               181     -1.357898  11 C  px        

 Vector   72  Occ=0.000000D+00  E= 3.068436D-02
              MO Center=  2.8D+00,  3.2D-02, -2.8D-01, r^2= 4.2D+01
   Bfn.  Coefficient  Atom+Function         Bfn.  Coefficient  Atom+Function  
  ----- ------------  ---------------      ----- ------------  ---------------
    64      2.482274   5 C  py               12      2.102794   2 C  s         
   459     -2.067020  28 C  s               198      1.961114  12 H  s         
   411     -1.641465  25 H  s               147     -1.616106   9 C  px        
   458     -1.586513  28 C  s               483      1.555937  29 H  s         
   148      1.525757   9 C  py               37     -1.445910   3 H  s         

 Vector   73  Occ=0.000000D+00  E= 3.890107D-02
              MO Center=  1.8D+00,  1.8D+00, -5.4D-01, r^2= 4.1D+01
   Bfn.  Coefficient  Atom+Function         Bfn.  Coefficient  Atom+Function  
  ----- ------------  ---------------      ----- ------------  ---------------
   149      3.135402   9 C  pz              164      3.148129  10 H  s         
   147      2.988422   9 C  px              174     -2.228620  11 C  s         
   233      2.068306  15 C  px              216     -1.956906  14 H  s         
    64     -1.928139   5 C  py              483      1.904576  29 H  s         
    46      1.860384   4 H  s               173      1.813136  11 C  s         

 Vector   74  Occ=0.000000D+00  E= 3.974984D-02
              MO Center=  1.9D+00,  6.2D-02,  5.7D-01, r^2= 4.3D+01
   Bfn.  Coefficient  Atom+Function         Bfn.  Coefficient  Atom+Function  
  ----- ------------  ---------------      ----- ------------  ---------------
   164      3.264116  10 H  s               459      2.493360  28 C  s         
    64      2.291596   5 C  py              207      2.162399  13 H  s         
     3     -1.884161   1 H  s                56     -1.826455   5 C  s         
   149      1.646590   9 C  pz              216     -1.571363  14 H  s         
   458      1.498847  28 C  s               106      1.469288   7 N  s         

 Vector   75  Occ=0.000000D+00  E= 4.795050D-02
              MO Center=  7.7D-01,  1.0D+00, -3.5D-01, r^2= 5.0D+01
   Bfn.  Coefficient  Atom+Function         Bfn.  Coefficient  Atom+Function  
  ----- ------------  ---------------      ----- ------------  ---------------
    37      2.553936   3 H  s                46     -2.336320   4 H  s         
   483      2.247020  29 H  s               130      2.209624   8 H  s         
   106      1.809272   7 N  s                56     -1.531848   5 C  s         
    20     -1.426577   2 C  px              216     -1.387051  14 H  s         
     3     -1.379705   1 H  s               140      1.324744   9 C  s         

 Vector   76  Occ=0.000000D+00  E= 5.000116D-02
              MO Center=  1.4D+00, -1.1D+00,  7.9D-01, r^2= 4.7D+01
   Bfn.  Coefficient  Atom+Function         Bfn.  Coefficient  Atom+Function  
  ----- ------------  ---------------      ----- ------------  ---------------
   234      3.495663  15 C  py              483     -3.006287  29 H  s         
   420      2.948967  26 H  s               387      2.634408  24 C  s         
     3     -2.272266   1 H  s               396     -2.221636  24 C  pz        
    37      2.183673   3 H  s               344      2.093863  21 C  s         
   319     -1.766417  19 C  pz              130     -1.748237   8 H  s         

 Vector   77  Occ=0.000000D+00  E= 5.329403D-02
              MO Center=  5.7D-01, -8.4D-01, -2.7D-01, r^2= 3.9D+01
   Bfn.  Coefficient  Atom+Function         Bfn.  Coefficient  Atom+Function  
  ----- ------------  ---------------      ----- ------------  ---------------
    64      2.715186   5 C  py              164      2.637704  10 H  s         
   334      2.256411  20 H  s               431     -2.246386  27 S  s         
    56     -2.208162   5 C  s               492     -2.165342  30 H  s         
   198     -2.071855  12 H  s               396     -2.055464  24 C  pz        
   420      2.035851  26 H  s               234      1.897625  15 C  py        

 Vector   78  Occ=0.000000D+00  E= 5.914378D-02
              MO Center=  9.5D-01,  1.3D+00, -3.8D-01, r^2= 4.5D+01
   Bfn.  Coefficient  Atom+Function         Bfn.  Coefficient  Atom+Function  
  ----- ------------  ---------------      ----- ------------  ---------------
   207      4.548164  13 H  s               164     -3.209324  10 H  s         
   276     -2.643516  17 N  s               519     -2.393378  32 C  py        
   492     -2.374425  30 H  s               148     -2.276546   9 C  py        
   594      2.105120  36 H  s                46      2.055118   4 H  s         
    56      2.038505   5 C  s                13      1.974049   2 C  s         

 Vector   79  Occ=0.000000D+00  E= 6.351880D-02
              MO Center=  1.0D+00,  1.8D+00,  7.0D-01, r^2= 4.1D+01
   Bfn.  Coefficient  Atom+Function         Bfn.  Coefficient  Atom+Function  
  ----- ------------  ---------------      ----- ------------  ---------------
   216     -3.612227  14 H  s                 3      3.589249   1 H  s         
   411     -3.137049  25 H  s               334     -2.644761  20 H  s         
   164      2.376565  10 H  s                37     -2.233142   3 H  s         
   276     -2.020881  17 N  s                46     -2.004290   4 H  s         
   106      1.965311   7 N  s               207      1.923251  13 H  s         

 Vector   80  Occ=0.000000D+00  E= 6.837246D-02
              MO Center=  4.5D-01, -8.3D-01,  2.2D-01, r^2= 4.6D+01
   Bfn.  Coefficient  Atom+Function         Bfn.  Coefficient  Atom+Function  
  ----- ------------  ---------------      ----- ------------  ---------------
   164      5.067170  10 H  s               233     -4.861759  15 C  px        
   411      4.874257  25 H  s               198     -4.628154  12 H  s         
   234     -3.657917  15 C  py              174      3.412461  11 C  s         
   377     -3.094792  23 H  s               216      2.969330  14 H  s         
   420     -2.878734  26 H  s               501      2.547349  31 H  s         

 Vector   81  Occ=0.000000D+00  E= 6.934948D-02
              MO Center=  6.8D-01, -1.2D+00, -7.2D-01, r^2= 4.4D+01
   Bfn.  Coefficient  Atom+Function         Bfn.  Coefficient  Atom+Function  
  ----- ------------  ---------------      ----- ------------  ---------------
   459      4.108406  28 C  s               483      3.969205  29 H  s         
   334     -3.680836  20 H  s               164      3.626960  10 H  s         
   319     -2.840719  19 C  pz              149      2.485351   9 C  pz        
   492     -2.371733  30 H  s               130     -2.305983   8 H  s         
   216      2.160389  14 H  s               501     -2.143916  31 H  s         

 Vector   82  Occ=0.000000D+00  E= 7.138309D-02
              MO Center= -5.8D-01,  6.7D-02,  7.7D-01, r^2= 4.9D+01
   Bfn.  Coefficient  Atom+Function         Bfn.  Coefficient  Atom+Function  
  ----- ------------  ---------------      ----- ------------  ---------------
    56      4.583016   5 C  s               501      3.866007  31 H  s         
   511      3.775616  32 C  s               310      3.534090  19 C  s         
   318     -3.482905  19 C  py              368     -2.935867  22 H  s         
   561     -2.928554  34 N  s               174     -2.731675  11 C  s         
   594     -2.738262  36 H  s               519      2.636182  32 C  py        

 Vector   83  Occ=0.000000D+00  E= 8.029540D-02
              MO Center=  5.1D-01,  1.3D+00,  5.3D-01, r^2= 4.6D+01
   Bfn.  Coefficient  Atom+Function         Bfn.  Coefficient  Atom+Function  
  ----- ------------  ---------------      ----- ------------  ---------------
   411     -5.010930  25 H  s               130      4.713430   8 H  s         
    46      4.095746   4 H  s               492      3.984243  30 H  s         
    56      3.774968   5 C  s               377      3.708249  23 H  s         
   334     -3.468535  20 H  s               174     -3.187797  11 C  s         
     3     -3.052894   1 H  s               317     -2.814888  19 C  px        

 Vector   84  Occ=0.000000D+00  E= 8.533190D-02
              MO Center=  1.8D-01, -1.4D+00,  1.1D+00, r^2= 4.1D+01
   Bfn.  Coefficient  Atom+Function         Bfn.  Coefficient  Atom+Function  
  ----- ------------  ---------------      ----- ------------  ---------------
   377      5.973391  23 H  s               420     -5.356447  26 H  s         
   164      4.992757  10 H  s               216      4.435422  14 H  s         
   147     -3.621325   9 C  px              234     -3.615493  15 C  py        
   276     -3.532285  17 N  s               300     -3.320052  18 H  s         
   207     -3.253921  13 H  s               174      3.085700  11 C  s         

 Vector   85  Occ=0.000000D+00  E= 8.869816D-02
              MO Center=  3.2D-01, -1.5D+00, -4.2D-02, r^2= 4.0D+01
   Bfn.  Coefficient  Atom+Function         Bfn.  Coefficient  Atom+Function  
  ----- ------------  ---------------      ----- ------------  ---------------
   459      6.516565  28 C  s               334     -5.834100  20 H  s         
   431     -4.877298  27 S  s               368     -4.818717  22 H  s         
   300      4.707814  18 H  s               198      4.652435  12 H  s         
   387      4.270561  24 C  s               317     -4.097578  19 C  px        
   492     -3.678335  30 H  s               164     -3.643014  10 H  s         

 Vector   86  Occ=0.000000D+00  E= 9.435580D-02
              MO Center=  8.8D-01, -5.0D-01,  2.5D-01, r^2= 3.7D+01
   Bfn.  Coefficient  Atom+Function         Bfn.  Coefficient  Atom+Function  
  ----- ------------  ---------------      ----- ------------  ---------------
   411      9.245362  25 H  s               300     -7.350198  18 H  s         
    56     -5.343856   5 C  s               164      5.061145  10 H  s         
   368     -4.825814  22 H  s               394     -3.898199  24 C  px        
   352      3.715406  21 C  py              174      3.549761  11 C  s         
   334      2.794981  20 H  s                64      2.465751   5 C  py        

 Vector   87  Occ=0.000000D+00  E= 1.015755D-01
              MO Center=  8.1D-01, -1.2D+00,  1.5D+00, r^2= 4.0D+01
   Bfn.  Coefficient  Atom+Function         Bfn.  Coefficient  Atom+Function  
  ----- ------------  ---------------      ----- ------------  ---------------
   368      6.987885  22 H  s               420     -6.621612  26 H  s         
   198      5.538285  12 H  s               511      5.432303  32 C  s         
   501      4.529847  31 H  s               317      4.428496  19 C  px        
   216     -4.144813  14 H  s               234      3.943520  15 C  py        
   492     -3.789847  30 H  s               130      3.376617   8 H  s         

 Vector   88  Occ=0.000000D+00  E= 1.029438D-01
              MO Center=  6.3D-01,  7.2D-01, -1.0D+00, r^2= 3.9D+01
   Bfn.  Coefficient  Atom+Function         Bfn.  Coefficient  Atom+Function  
  ----- ------------  ---------------      ----- ------------  ---------------
   198      9.581417  12 H  s               585      8.916754  35 H  s         
   411     -6.998874  25 H  s                56     -5.258865   5 C  s         
   233      3.887755  15 C  px               64      3.819083   5 C  py        
   492     -3.264977  30 H  s               164     -3.248627  10 H  s         
   207     -3.059253  13 H  s               149     -2.798880   9 C  pz        

 Vector   89  Occ=0.000000D+00  E= 1.075108D-01
[...]
   511      7.910071  32 C  s               234     -7.804194  15 C  py        
   386     -6.368687  24 C  s               233      6.300239  15 C  px        
   317      5.943282  19 C  px              344     -5.868084  21 C  s         
   458     -4.878658  28 C  s               147     -4.345606   9 C  px        

 Vector  177  Occ=0.000000D+00  E= 4.464760D-01
              MO Center= -2.6D-01,  5.3D-01,  2.2D-01, r^2= 2.2D+01
   Bfn.  Coefficient  Atom+Function         Bfn.  Coefficient  Atom+Function  
  ----- ------------  ---------------      ----- ------------  ---------------
   233      6.753666  15 C  px              174     -5.408012  11 C  s         
   284      5.274191  17 N  py                2      4.980401   1 H  s         
   458      4.542480  28 C  s                12     -4.468263   2 C  s         
   352      4.442872  21 C  py              459      4.134903  28 C  s         
    64     -4.079673   5 C  py              148      3.998987   9 C  py        

 Vector  178  Occ=0.000000D+00  E= 4.495852D-01
              MO Center=  5.2D-01, -8.4D-01,  3.0D-01, r^2= 2.4D+01
   Bfn.  Coefficient  Atom+Function         Bfn.  Coefficient  Atom+Function  
  ----- ------------  ---------------      ----- ------------  ---------------
   352      7.856535  21 C  py              411      7.883265  25 H  s         
   173      6.341495  11 C  s               174      6.344013  11 C  s         
   235     -6.329403  15 C  pz              395     -5.559394  24 C  py        
   233      4.986090  15 C  px              276     -4.906572  17 N  s         
   215     -4.614610  14 H  s               420     -4.563696  26 H  s         

 Vector  179  Occ=0.000000D+00  E= 4.500871D-01
              MO Center=  3.3D-01,  1.6D-01,  3.5D-01, r^2= 2.5D+01
   Bfn.  Coefficient  Atom+Function         Bfn.  Coefficient  Atom+Function  
  ----- ------------  ---------------      ----- ------------  ---------------
    56     14.797102   5 C  s               174    -14.715193  11 C  s         
   344    -11.662215  21 C  s                13    -11.204170   2 C  s         
   147      9.896243   9 C  px              276      9.397602  17 N  s         
   234      9.164449  15 C  py              511      8.586270  32 C  s         
   318     -6.753251  19 C  py              206      6.491060  13 H  s         

 Vector  180  Occ=0.000000D+00  E= 4.559735D-01
              MO Center=  3.9D-01,  3.7D-02,  3.6D-02, r^2= 2.4D+01
   Bfn.  Coefficient  Atom+Function         Bfn.  Coefficient  Atom+Function  
  ----- ------------  ---------------      ----- ------------  ---------------
   284      6.030670  17 N  py               56      5.829377   5 C  s         
   285      5.789130  17 N  pz              344     -5.641698  21 C  s         
   276      4.712404  17 N  s               387     -4.457935  24 C  s         
   317      4.320353  19 C  px              283     -4.267922  17 N  px        
   251     -4.208841  16 O  s               318     -3.854121  19 C  py        

 Vector  181  Occ=0.000000D+00  E= 4.561251D-01
              MO Center=  7.2D-01, -2.8D-01,  8.2D-01, r^2= 2.1D+01
   Bfn.  Coefficient  Atom+Function         Bfn.  Coefficient  Atom+Function  
  ----- ------------  ---------------      ----- ------------  ---------------
   317     15.283859  19 C  px               56     14.700575   5 C  s         
   511     10.228527  32 C  s               233     -9.628637  15 C  px        
   411      8.227510  25 H  s               318     -7.703820  19 C  py        
   276     -7.353213  17 N  s               235     -7.313895  15 C  pz        
    13     -7.029206   2 C  s               174     -6.916388  11 C  s         

 Vector  182  Occ=0.000000D+00  E= 4.665684D-01
              MO Center=  8.9D-01, -1.7D+00,  1.6D-01, r^2= 2.5D+01
   Bfn.  Coefficient  Atom+Function         Bfn.  Coefficient  Atom+Function  
  ----- ------------  ---------------      ----- ------------  ---------------
   174     -9.656662  11 C  s                56      9.087714   5 C  s         
   317      8.136489  19 C  px              173     -7.136623  11 C  s         
    12     -6.970261   2 C  s                13     -6.529704   2 C  s         
   318     -6.129749  19 C  py              319     -6.041940  19 C  pz        
   234     -5.938785  15 C  py              309      5.833451  19 C  s         

 Vector  183  Occ=0.000000D+00  E= 4.687909D-01
              MO Center=  1.5D-02, -8.9D-01,  1.1D-01, r^2= 1.8D+01
   Bfn.  Coefficient  Atom+Function         Bfn.  Coefficient  Atom+Function  
  ----- ------------  ---------------      ----- ------------  ---------------
   519      7.536098  32 C  py              387     -6.123839  24 C  s         
   285     -6.058300  17 N  pz              561     -5.941990  34 N  s         
   148      5.786967   9 C  py              225      5.221870  15 C  s         
   317     -5.139343  19 C  px              319      5.080928  19 C  pz        
   411     -4.547307  25 H  s               431      4.377854  27 S  s         

 Vector  184  Occ=0.000000D+00  E= 4.703625D-01
              MO Center=  4.6D-01, -1.1D+00,  4.8D-01, r^2= 2.1D+01
   Bfn.  Coefficient  Atom+Function         Bfn.  Coefficient  Atom+Function  
  ----- ------------  ---------------      ----- ------------  ---------------
   173      8.257360  11 C  s               386     -7.305968  24 C  s         
   419      6.372939  26 H  s               276     -6.110100  17 N  s         
   351     -5.978465  21 C  px              309      5.241216  19 C  s         
   394     -5.179459  24 C  px              226     -4.472205  15 C  s         
   215     -4.434814  14 H  s               376     -4.388440  23 H  s         

 Vector  185  Occ=0.000000D+00  E= 4.723309D-01
              MO Center=  1.6D-01, -3.6D-01,  2.4D-01, r^2= 2.3D+01
   Bfn.  Coefficient  Atom+Function         Bfn.  Coefficient  Atom+Function  
  ----- ------------  ---------------      ----- ------------  ---------------
   511     19.144705  32 C  s                56     14.349296   5 C  s         
   310     11.732740  19 C  s               561    -10.027394  34 N  s         
   106     -8.913078   7 N  s               344     -6.833183  21 C  s         
   317      6.113884  19 C  px              319      5.887087  19 C  pz        
   387     -5.645079  24 C  s               234     -4.967984  15 C  py        

 Vector  186  Occ=0.000000D+00  E= 4.747487D-01
              MO Center=  2.4D-01,  7.3D-01, -3.5D-02, r^2= 2.0D+01
   Bfn.  Coefficient  Atom+Function         Bfn.  Coefficient  Atom+Function  
  ----- ------------  ---------------      ----- ------------  ---------------
   174     21.101133  11 C  s                56    -17.449135   5 C  s         
   387    -12.849055  24 C  s               234    -11.892423  15 C  py        
   147    -11.467065   9 C  px              284    -11.356559  17 N  py        
    12      9.481159   2 C  s               114      6.795110   7 N  py        
    81      6.658251   6 O  s                13      6.348696   2 C  s         

 Vector  187  Occ=0.000000D+00  E= 4.811939D-01
              MO Center=  2.7D-01, -3.9D-01,  2.6D-01, r^2= 2.2D+01
   Bfn.  Coefficient  Atom+Function         Bfn.  Coefficient  Atom+Function  
  ----- ------------  ---------------      ----- ------------  ---------------
   174     24.189534  11 C  s                56    -18.761584   5 C  s         
   233    -17.795378  15 C  px              276     -9.234363  17 N  s         
   519     -8.770511  32 C  py              147     -7.774734   9 C  px        
   235     -6.849058  15 C  pz              181     -6.382639  11 C  px        
   458     -5.611180  28 C  s               318      5.552979  19 C  py        

 Vector  188  Occ=0.000000D+00  E= 4.863356D-01
              MO Center=  5.6D-01, -5.1D-01,  2.5D-01, r^2= 2.1D+01
   Bfn.  Coefficient  Atom+Function         Bfn.  Coefficient  Atom+Function  
  ----- ------------  ---------------      ----- ------------  ---------------
   387     16.422091  24 C  s               511    -15.690528  32 C  s         
   174    -12.402973  11 C  s               561     12.165771  34 N  s         
   276     10.390975  17 N  s               310     -8.892735  19 C  s         
   215      8.214109  14 H  s               317     -7.865068  19 C  px        
   147      7.663669   9 C  px              344      6.678811  21 C  s         

 Vector  189  Occ=0.000000D+00  E= 4.886530D-01
              MO Center=  3.6D-01, -3.1D-01,  5.4D-01, r^2= 2.3D+01
   Bfn.  Coefficient  Atom+Function         Bfn.  Coefficient  Atom+Function  
  ----- ------------  ---------------      ----- ------------  ---------------
   511     24.794369  32 C  s               276    -14.798905  17 N  s         
    13    -14.333742   2 C  s               148     14.116593   9 C  py        
   317     12.278695  19 C  px              174      9.235178  11 C  s         
   235     -9.201348  15 C  pz              310      9.163737  19 C  s         
    64      8.559343   5 C  py              233      7.850765  15 C  px        

 Vector  190  Occ=0.000000D+00  E= 4.919362D-01
              MO Center=  3.9D-01, -6.0D-01, -1.2D-03, r^2= 2.3D+01
   Bfn.  Coefficient  Atom+Function         Bfn.  Coefficient  Atom+Function  
  ----- ------------  ---------------      ----- ------------  ---------------
   511     22.756924  32 C  s               276    -15.997509  17 N  s         
   459    -14.741111  28 C  s                13    -12.019431   2 C  s         
    56     12.054838   5 C  s               317     10.961242  19 C  px        
   310     10.387406  19 C  s               234      7.597952  15 C  py        
   318     -7.502667  19 C  py              561     -6.801750  34 N  s         

 Vector  191  Occ=0.000000D+00  E= 4.947461D-01
              MO Center=  1.2D+00,  6.5D-01,  2.5D-01, r^2= 2.0D+01
   Bfn.  Coefficient  Atom+Function         Bfn.  Coefficient  Atom+Function  
  ----- ------------  ---------------      ----- ------------  ---------------
   173      9.496517  11 C  s                12     -8.540076   2 C  s         
   234     -7.755057  15 C  py              206     -7.217693  13 H  s         
    13      6.310872   2 C  s               317     -5.526983  19 C  px        
   285     -5.199893  17 N  pz              114     -5.142240   7 N  py        
   411     -4.658773  25 H  s               458      4.425333  28 C  s         

 Vector  192  Occ=0.000000D+00  E= 4.988379D-01
              MO Center=  1.2D-01, -2.1D+00,  5.7D-01, r^2= 2.0D+01
   Bfn.  Coefficient  Atom+Function         Bfn.  Coefficient  Atom+Function  
  ----- ------------  ---------------      ----- ------------  ---------------
   387     20.937843  24 C  s               343     15.146684  21 C  s         
   459     14.889288  28 C  s               431    -14.006980  27 S  s         
   367    -11.606320  22 H  s               352      8.732275  21 C  py        
   376     -8.774404  23 H  s               458      8.760575  28 C  s         
   234      8.083147  15 C  py              310     -6.880133  19 C  s         

 Vector  193  Occ=0.000000D+00  E= 5.005566D-01
              MO Center=  1.2D+00, -1.2D+00, -4.4D-02, r^2= 2.1D+01
   Bfn.  Coefficient  Atom+Function         Bfn.  Coefficient  Atom+Function  
  ----- ------------  ---------------      ----- ------------  ---------------
   174     14.944054  11 C  s               276    -11.940652  17 N  s         
   173      6.979756  11 C  s                56     -6.672804   5 C  s         
   233     -6.236774  15 C  px              215     -6.187907  14 H  s         
   283      5.996394  17 N  px              197     -5.475138  12 H  s         
   459     -5.189512  28 C  s               410      5.059122  25 H  s         


 center of mass
 --------------
 x =  -0.09449111 y =  -0.00617970 z =  -0.02084069

 moments of inertia (a.u.)
 ------------------
        7275.247596728734          -0.000000000000          -0.000000000000
          -0.000000000000        3073.479963600049          -0.000000000001
          -0.000000000000          -0.000000000001        9290.675870955538

  Mulliken analysis of the total density
  --------------------------------------

    Atom       Charge   Shell Charges
 -----------   ------   -------------------------------------------------------
    1 H    1     0.85   0.76  0.12  0.00  0.03 -0.06
    2 C    6     6.32   2.01  0.66  0.25  0.13  2.07  1.04  0.01  0.06  0.10
    3 H    1     0.83   0.76  0.10  0.00  0.03 -0.06
    4 H    1     0.97   0.76  0.22  0.01  0.03 -0.05
    5 C    6     5.07   2.01  0.68  0.07 -0.10  1.89  0.31 -0.03  0.24  0.01
    6 O    8     8.78   2.01  0.82  1.00  0.15  2.80  1.86  0.15  0.01 -0.01
    7 N    7     7.63   2.01  0.72  0.83 -0.09  2.45  1.44  0.19  0.05  0.04
    8 H    1     0.96   0.77  0.21 -0.03  0.05 -0.04
    9 C    6     6.54   2.01  0.66  0.20 -0.05  2.00  1.40 -0.03  0.14  0.21
   10 H    1     1.21   0.79  0.36  0.01  0.03  0.02
   11 C    6     5.74   2.01  0.66  0.16  0.27  2.04  0.55 -0.03  0.07 -0.00
   12 H    1     1.00   0.77  0.26  0.02  0.03 -0.08
   13 H    1     0.97   0.77  0.25  0.01  0.03 -0.09
   14 H    1     0.91   0.77  0.17  0.03  0.03 -0.08
   15 C    6     4.11   2.01  0.68 -0.14  0.02  1.89  0.10 -0.20  0.23 -0.50
   16 O    8     8.92   2.01  0.82  1.06  0.18  2.78  1.87  0.17  0.01  0.01
   17 N    7     7.31   2.01  0.72  0.82 -0.29  2.45  1.46  0.02  0.05  0.08
   18 H    1     1.12   0.77  0.33 -0.02  0.05 -0.01
   19 C    6     6.25   2.01  0.66  0.01  0.03  1.99  1.22  0.16  0.14  0.04
   20 H    1     1.25   0.78  0.45 -0.00  0.03 -0.01
   21 C    6     6.21   2.01  0.66  0.58 -0.03  2.03  0.66 -0.00  0.09  0.20
   22 H    1     0.92   0.78  0.20  0.00  0.03 -0.09
   23 H    1     0.92   0.78  0.20  0.00  0.03 -0.08
   24 C    6     6.11   2.01  0.66  0.29 -0.02  1.99  0.95  0.12  0.10  0.00
   25 H    1     0.98   0.78  0.21 -0.03  0.03 -0.01
   26 H    1     1.03   0.78  0.29 -0.01  0.03 -0.06
   27 S   16    15.30   2.00  2.03  0.86  0.71  0.08  6.00  2.32  1.33  0.07  0.13 -0.22
   28 C    6     5.98   2.01  0.65  0.37 -0.07  2.00  1.01 -0.02  0.07 -0.03
   29 H    1     1.23   0.76  0.47 -0.01  0.03 -0.02
   30 H    1     1.07   0.76  0.26  0.03  0.03 -0.01
   31 H    1     1.04   0.76  0.25  0.01  0.03 -0.01
   32 C    6     4.57   2.01  0.68  0.12  0.04  1.89 -0.20 -0.01  0.24 -0.18
   33 O    8     8.82   2.01  0.82  1.04  0.18  2.79  1.84  0.14  0.01 -0.01
   34 N    7     7.16   2.01  0.72  0.82 -0.20  2.47  1.23  0.10  0.04 -0.02
   35 H    1     0.91   0.73  0.28 -0.03  0.06 -0.13
   36 H    1     1.01   0.76  0.23 -0.00  0.05 -0.03

       Multipole analysis of the density wrt the origin
       ------------------------------------------------

     L   x y z        total         open         nuclear
     -   - - -        -----         ----         -------
     0   0 0 0     -0.000000      0.000000    140.000000

     1   1 0 0      3.202805      0.000000     -0.000000
     1   0 1 0      1.247076      0.000000      0.000000
     1   0 0 1     -0.189552      0.000000      0.000000

     2   2 0 0    -87.379235      0.000000   1416.229370
     2   1 1 0     -3.438452      0.000000    -23.939991
     2   1 0 1      2.667614      0.000000     10.065267
     2   0 2 0    -66.706790      0.000000   3749.264691
     2   0 1 1      1.102845      0.000000     -9.150644
     2   0 0 2    -87.933137      0.000000    300.346261


 Task  times  cpu:     4133.3s     wall:     4199.5s


                                NWChem Input Module
                                -------------------


 Summary of allocated global arrays
-----------------------------------
  No active global arrays


MA_summarize_allocated_blocks: starting scan ...
MA_summarize_allocated_blocks: scan completed: 0 heap blocks, 0 stack blocks
MA usage statistics:

	allocation statistics:
					      heap	     stack
					      ----	     -----
	current number of blocks	         0	         0
	maximum number of blocks	        16	        14
	current total bytes		         0	         0
	maximum total bytes		    138112	  33951736
	maximum total K-bytes		       139	     33952
	maximum total M-bytes		         1	        34


                                     CITATION
                                     --------
                Please cite the following reference when publishing
                           results obtained with NWChem:

          E. Apra, E. J. Bylaska, W. A. de Jong, N. Govind, K. Kowalski,
       T. P. Straatsma, M. Valiev, H. J. J. van Dam, Y. Alexeev, J. Anchell,
       V. Anisimov, F. W. Aquino, R. Atta-Fynn, J. Autschbach, N. P. Bauman,
     J. C. Becca, D. E. Bernholdt, K. Bhaskaran-Nair, S. Bogatko, P. Borowski,
         J. Boschen, J. Brabec, A. Bruner, E. Cauet, Y. Chen, G. N. Chuev,
      C. J. Cramer, J. Daily, M. J. O. Deegan, T. H. Dunning Jr., M. Dupuis,
   K. G. Dyall, G. I. Fann, S. A. Fischer, A. Fonari, H. Fruchtl, L. Gagliardi,
      J. Garza, N. Gawande, S. Ghosh, K. Glaesemann, A. W. Gotz, J. Hammond,
       V. Helms, E. D. Hermes, K. Hirao, S. Hirata, M. Jacquelin, L. Jensen,
   B. G. Johnson, H. Jonsson, R. A. Kendall, M. Klemm, R. Kobayashi, V. Konkov,
      S. Krishnamoorthy, M. Krishnan, Z. Lin, R. D. Lins, R. J. Littlefield,
      A. J. Logsdail, K. Lopata, W. Ma, A. V. Marenich, J. Martin del Campo,
   D. Mejia-Rodriguez, J. E. Moore, J. M. Mullin, T. Nakajima, D. R. Nascimento,
    J. A. Nichols, P. J. Nichols, J. Nieplocha, A. Otero-de-la-Roza, B. Palmer,
    A. Panyala, T. Pirojsirikul, B. Peng, R. Peverati, J. Pittner, L. Pollack,
   R. M. Richard, P. Sadayappan, G. C. Schatz, W. A. Shelton, D. W. Silverstein,
   D. M. A. Smith, T. A. Soares, D. Song, M. Swart, H. L. Taylor, G. S. Thomas,
            V. Tipparaju, D. G. Truhlar, K. Tsemekhman, T. Van Voorhis,
      A. Vazquez-Mayagoitia, P. Verma, O. Villa, A. Vishnu, K. D. Vogiatzis,
        D. Wang, J. H. Weare, M. J. Williamson, T. L. Windus, K. Wolinski,
        A. T. Wong, Q. Wu, C. Yang, Q. Yu, M. Zacharias, Z. Zhang, Y. Zhao,
                                and R. J. Harrison
                        "NWChem: Past, present, and future
                         J. Chem. Phys. 152, 184102 (2020)
                               doi:10.1063/5.0004997

                                      AUTHORS
                                      -------
  E. Apra, E. J. Bylaska, N. Govind, K. Kowalski, M. Valiev, D. Mejia-Rodriguez,
       A. Kunitsa, N. P. Bauman, A. Panyala, W. A. de Jong, T. P. Straatsma,
   H. J. J. van Dam, D. Wang, T. L. Windus, J. Hammond, J. Autschbach, A. Woods,
    K. Bhaskaran-Nair, J. Brabec, K. Lopata, S. A. Fischer, S. Krishnamoorthy,
     M. Jacquelin, W. Ma, M. Klemm, O. Villa, Y. Chen, V. Anisimov, F. Aquino,
     S. Hirata, M. T. Hackler, E. Hermes, L. Jensen, J. E. Moore, J. C. Becca,
      V. Konjkov, T. Risthaus, M. Malagoli, A. Marenich, A. Otero-de-la-Roza,
        J. Mullin, P. Nichols, R. Peverati, J. Pittner, Y. Zhao, P.-D. Fan,
        A. Fonari, M. J. Williamson, R. J. Harrison, J. R. Rehr, M. Dupuis,
     D. Silverstein, D. M. A. Smith, J. Nieplocha, V. Tipparaju, M. Krishnan,
     B. E. Van Kuiken, A. Vazquez-Mayagoitia, M. Swart, Q. Wu, T. Van Voorhis,
     A. A. Auer, M. Nooijen, L. D. Crosby, E. Brown, G. Cisneros, G. I. Fann,
   H. Fruchtl, J. Garza, K. Hirao, R. A. Kendall, J. A. Nichols, K. Tsemekhman,
    K. Wolinski, J. Anchell, D. E. Bernholdt, P. Borowski, T. Clark, D. Clerc,
   H. Dachsel, M. J. O. Deegan, K. Dyall, D. Elwood, E. Glendening, M. Gutowski,
   A. C. Hess, J. Jaffe, B. G. Johnson, J. Ju, R. Kobayashi, R. Kutteh, Z. Lin,
   R. Littlefield, X. Long, B. Meng, T. Nakajima, S. Niu, L. Pollack, M. Rosing,
   K. Glaesemann, G. Sandrone, M. Stave, H. Taylor, G. Thomas, J. H. van Lenthe,
                               A. T. Wong, Z. Zhang.

 Total times  cpu:     4133.3s     wall:     4199.9s
