export TMOUT=5400
export TMPDIR=/tmp
export PTMPDIR=/tmp/ptmp
 argument  1 = ALA_MET_2.nw
                                         
                                         


             Northwest Computational Chemistry Package (NWChem) 7.2.0
             --------------------------------------------------------


                    Environmental Molecular Sciences Laboratory
                       Pacific Northwest National Laboratory
                                Richland, WA 99352

                              Copyright (c) 1994-2022
                       Pacific Northwest National Laboratory
                            Battelle Memorial Institute

             NWChem is an open-source computational chemistry package
                        distributed under the terms of the
                      Educational Community License (ECL) 2.0
             A copy of the license is included with this distribution
                              in the LICENSE.TXT file

                                  ACKNOWLEDGMENT
                                  --------------

            This software and its documentation were developed at the
            EMSL at Pacific Northwest National Laboratory, a multiprogram
            national laboratory, operated for the U.S. Department of Energy
            by Battelle under Contract Number DE-AC05-76RL01830. Support
            for this work was provided by the Department of Energy Office
            of Biological and Environmental Research, Office of Basic
            Energy Sciences, and the Office of Advanced Scientific Computing.


           Job information
           ---------------

    hostname        = nova18-45
    program         = /opt/rit/el9/20230413/app/linux-rhel9-x86_64_v3/gcc-11.2.1/nwchem-7.2.0-oxtctbuhfuzyfaoziquq6bki22grib3g/bin/nwchem
    date            = Fri Jun 27 16:41:40 2025

    compiled        = Wed_May_17_23:46:39_2023
    source          = /tmp/root/spack-stage/spack-stage-nwchem-7.2.0-oxtctbuhfuzyfaoziquq6bki22grib3g/spack-src
    nwchem branch   = 7.2.0
    nwchem revision = d0d141fd
    ga revision     = 5.8.0
    use scalapack   = T
    input           = ALA_MET_2.nw
    prefix          = ALA_MET_2.
    data base       = ./ALA_MET_2.db
    status          = startup
    nproc           =        8
    time left       =     -1s



           Memory information
           ------------------

    heap     =   26214396 doubles =    200.0 Mbytes
    stack    =   26214401 doubles =    200.0 Mbytes
    global   =   52428800 doubles =    400.0 Mbytes (distinct from heap & stack)
    total    =  104857597 doubles =    800.0 Mbytes
    verify   = yes
    hardfail = no 


           Directory information
           ---------------------

  0 permanent = .
  0 scratch   = .




                                NWChem Input Module
                                -------------------



 Scaling coordinates for geometry "geometry" by  1.889725989
 (inverse scale =  0.529177249)

 C1  symmetry detected

          ------
          auto-z
          ------
  no constraints, skipping    0.0000000000000000     
  no constraints, skipping    0.0000000000000000     


                             Geometry "geometry" -> ""
                             -------------------------

 Output coordinates in angstroms (scale by  1.889725989 to convert to a.u.)

  No.       Tag          Charge          X              Y              Z
 ---- ---------------- ---------- -------------- -------------- --------------
    1 H                    1.0000     2.54481992    -2.93565367     2.31423610
    2 C                    6.0000     1.81255480    -2.13788888     2.41921294
    3 H                    1.0000     1.95886799    -1.63353941     3.37384065
    4 H                    1.0000     0.80461564    -2.54753743     2.37562718
    5 C                    6.0000     1.99647588    -1.13691164     1.30375358
    6 O                    8.0000     2.24809520     0.03335878     1.55932914
    7 N                    7.0000     1.83492744    -1.59072728     0.06075420
    8 H                    1.0000     1.61387733    -2.56428955    -0.06333589
    9 C                    6.0000     2.03360589    -0.77713517    -1.14880636
   10 H                    1.0000     3.04837374    -0.37617183    -1.12609968
   11 C                    6.0000     1.91147421    -1.70671623    -2.36262385
   12 H                    1.0000     2.11345714    -1.14177706    -3.27383932
   13 H                    1.0000     2.63556988    -2.51908522    -2.28660351
   14 H                    1.0000     0.90226433    -2.11956280    -2.41951968
   15 C                    6.0000     1.08418889     0.43800378    -1.27754917
   16 O                    8.0000     1.29787011     1.29714379    -2.12555848
   17 N                    7.0000     0.04810686     0.51974602    -0.43757165
   18 H                    1.0000    -0.07766553    -0.23578757     0.21734766
   19 C                    6.0000    -0.87620352     1.65454371    -0.33415731
   20 H                    1.0000    -1.17097322     1.95508563    -1.34110636
   21 C                    6.0000    -2.13805217     1.22313459     0.43767243
   22 H                    1.0000    -1.88661583     1.05024941     1.48525368
   23 H                    1.0000    -2.85430995     2.04551114     0.39726692
   24 C                    6.0000    -2.82695040    -0.03132373    -0.12174117
   25 H                    1.0000    -3.86014913    -0.02414060     0.22761366
   26 H                    1.0000    -2.84394235     0.03129602    -1.21029022
   27 S                   16.0000    -2.09554779    -1.62152086     0.37735834
   28 C                    6.0000    -3.22488206    -2.75048668    -0.47917262
   29 H                    1.0000    -2.92640596    -3.78107337    -0.28303976
   30 H                    1.0000    -4.24201057    -2.59598564    -0.11716154
   31 H                    1.0000    -3.18919448    -2.56231614    -1.55242899
   32 C                    6.0000    -0.25516816     2.89406331     0.34103394
   33 O                    8.0000    -0.85416763     3.96254766     0.33488391
   34 N                    7.0000     0.91848845     2.78888658     0.95658006
   35 H                    1.0000     1.40273142     1.90190882     0.98777613
   36 H                    1.0000     1.30815352     3.61176550     1.38342009

      Atomic Mass 
      ----------- 

      H                  1.007825
      C                 12.000000
      O                 15.994910
      N                 14.003070
      S                 31.972070


 Effective nuclear repulsion energy (a.u.)    1470.2350780161

            Nuclear Dipole moment (a.u.) 
            ----------------------------
        X                 Y               Z
 ---------------- ---------------- ----------------
    -0.0000000000     0.0000000000     0.0000000000



                                Z-matrix (autoz)
                                -------- 

 Units are Angstrom for bonds and degrees for angles

      Type          Name      I     J     K     L     M      Value
      ----------- --------  ----- ----- ----- ----- ----- ----------
    1 Stretch                  1     2                       1.08796
    2 Stretch                  2     3                       1.08954
    3 Stretch                  2     4                       1.08888
    4 Stretch                  2     5                       1.50998
    5 Stretch                  5     6                       1.22400
    6 Stretch                  5     7                       1.33308
    7 Stretch                  7     8                       1.00602
    8 Stretch                  7     9                       1.47120
    9 Stretch                  9    10                       1.09135
   10 Stretch                  9    11                       1.53375
   11 Stretch                  9    15                       1.54743
   12 Stretch                 11    12                       1.09099
   13 Stretch                 11    13                       1.09089
   14 Stretch                 11    14                       1.09187
   15 Stretch                 15    16                       1.22593
   16 Stretch                 15    17                       1.33630
   17 Stretch                 17    18                       1.00775
   18 Stretch                 17    19                       1.46725
   19 Stretch                 19    20                       1.09140
   20 Stretch                 19    21                       1.54081
   21 Stretch                 19    32                       1.54207
   22 Stretch                 21    22                       1.09112
   23 Stretch                 21    23                       1.09131
   24 Stretch                 21    24                       1.53662
   25 Stretch                 24    25                       1.09069
   26 Stretch                 24    26                       1.09048
   27 Stretch                 24    27                       1.82010
   28 Stretch                 27    28                       1.81207
   29 Stretch                 28    29                       1.09072
   30 Stretch                 28    30                       1.09063
   31 Stretch                 28    31                       1.09021
   32 Stretch                 32    33                       1.22495
   33 Stretch                 32    34                       1.32945
   34 Stretch                 34    35                       1.01104
   35 Stretch                 34    36                       1.00557
   36 Bend                     1     2     3               109.48667
   37 Bend                     1     2     4               110.07844
   38 Bend                     1     2     5               109.44047
   39 Bend                     2     5     6               120.30494
   40 Bend                     2     5     7               116.63956
   41 Bend                     3     2     4               109.48310
   42 Bend                     3     2     5               108.90718
   43 Bend                     4     2     5               109.42510
   44 Bend                     5     7     8               118.10457
   45 Bend                     5     7     9               124.19266
   46 Bend                     6     5     7               123.03097
   47 Bend                     7     9    10               108.15809
   48 Bend                     7     9    11               107.74219
   49 Bend                     7     9    15               114.82230
   50 Bend                     8     7     9               117.60859
   51 Bend                     9    11    12               109.41506
   52 Bend                     9    11    13               110.08026
   53 Bend                     9    11    14               110.12111
   54 Bend                     9    15    16               120.06138
   55 Bend                     9    15    17               118.12786
   56 Bend                    10     9    11               108.25122
   57 Bend                    10     9    15               106.48214
   58 Bend                    11     9    15               111.17614
   59 Bend                    12    11    13               108.71915
   60 Bend                    12    11    14               108.86815
   61 Bend                    13    11    14               109.60747
   62 Bend                    15    17    18               117.34889
   63 Bend                    15    17    19               125.45375
   64 Bend                    16    15    17               121.80846
   65 Bend                    17    19    20               108.54762
   66 Bend                    17    19    21               109.55225
   67 Bend                    17    19    32               113.50529
   68 Bend                    18    17    19               117.09206
   69 Bend                    19    21    22               109.66880
   70 Bend                    19    21    23               107.93655
   71 Bend                    19    21    24               114.41641
   72 Bend                    19    32    33               120.13241
   73 Bend                    19    32    34               119.64807
   74 Bend                    20    19    21               108.54675
   75 Bend                    20    19    32               106.94130
   76 Bend                    21    19    32               109.60550
   77 Bend                    21    24    25               107.62014
   78 Bend                    21    24    26               108.87573
   79 Bend                    21    24    27               115.67529
   80 Bend                    22    21    23               107.82991
   81 Bend                    22    21    24               108.87396
   82 Bend                    23    21    24               107.90683
   83 Bend                    24    27    28                99.45479
   84 Bend                    25    24    26               107.73413
   85 Bend                    25    24    27               107.37274
   86 Bend                    26    24    27               109.27856
   87 Bend                    27    28    29               109.45906
   88 Bend                    27    28    30               109.63771
   89 Bend                    27    28    31               109.71818
   90 Bend                    29    28    30               109.23078
   91 Bend                    29    28    31               109.33860
   92 Bend                    30    28    31               109.44148
   93 Bend                    32    34    35               120.43250
   94 Bend                    32    34    36               118.28746
   95 Bend                    33    32    34               120.20063
   96 Bend                    35    34    36               121.27965
   97 Torsion                  1     2     5     6        -120.64036
   98 Torsion                  1     2     5     7          61.10708
   99 Torsion                  2     5     7     8          -0.74582
  100 Torsion                  2     5     7     9        -177.12551
  101 Torsion                  3     2     5     6          -0.98231
  102 Torsion                  3     2     5     7        -179.23488
  103 Torsion                  4     2     5     6         118.66225
  104 Torsion                  4     2     5     7         -59.59031
  105 Torsion                  5     7     9    10          56.63202
  106 Torsion                  5     7     9    11         173.43943
  107 Torsion                  5     7     9    15         -62.09772
  108 Torsion                  6     5     7     8        -178.94631
  109 Torsion                  6     5     7     9           4.67400
  110 Torsion                  7     9    11    12        -176.65233
  111 Torsion                  7     9    11    13         -57.23652
  112 Torsion                  7     9    11    14          63.72384
  113 Torsion                  7     9    15    16         168.40858
  114 Torsion                  7     9    15    17         -11.04992
  115 Torsion                  8     7     9    10        -119.76422
  116 Torsion                  8     7     9    11          -2.95680
  117 Torsion                  8     7     9    15         121.50605
  118 Torsion                  9    15    17    18          -2.08194
  119 Torsion                  9    15    17    19         174.06504
  120 Torsion                 10     9    11    12         -59.90561
  121 Torsion                 10     9    11    13          59.51020
  122 Torsion                 10     9    11    14        -179.52944
  123 Torsion                 10     9    15    16          48.74353
  124 Torsion                 10     9    15    17        -130.71496
  125 Torsion                 11     9    15    16         -68.95870
  126 Torsion                 11     9    15    17         111.58281
  127 Torsion                 12    11     9    15          56.71831
  128 Torsion                 13    11     9    15         176.13412
  129 Torsion                 14    11     9    15         -62.90552
  130 Torsion                 15    17    19    20          45.82087
  131 Torsion                 15    17    19    21         164.19278
  132 Torsion                 15    17    19    32         -72.93589
  133 Torsion                 16    15    17    18         178.46955
  134 Torsion                 16    15    17    19          -5.38347
  135 Torsion                 17    19    21    22          69.36690
  136 Torsion                 17    19    21    23        -173.40872
  137 Torsion                 17    19    21    24         -53.28520
  138 Torsion                 17    19    32    33         170.45090
  139 Torsion                 17    19    32    34         -11.12644
  140 Torsion                 18    17    19    20        -138.02327
  141 Torsion                 18    17    19    21         -19.65136
  142 Torsion                 18    17    19    32         103.21998
  143 Torsion                 19    21    24    25        -158.82739
  144 Torsion                 19    21    24    26         -42.31774
  145 Torsion                 19    21    24    27          81.15338
  146 Torsion                 19    32    34    35          -0.27198
  147 Torsion                 19    32    34    36         179.50384
  148 Torsion                 20    19    21    22        -172.26064
  149 Torsion                 20    19    21    23         -55.03627
  150 Torsion                 20    19    21    24          65.08726
  151 Torsion                 20    19    32    33          50.77499
  152 Torsion                 20    19    32    34        -130.80235
  153 Torsion                 21    19    32    33         -66.70709
  154 Torsion                 21    19    32    34         111.71556
  155 Torsion                 21    24    27    28         179.22090
  156 Torsion                 22    21    19    32         -55.78781
  157 Torsion                 22    21    24    25          78.09038
  158 Torsion                 22    21    24    26        -165.39996
  159 Torsion                 22    21    24    27         -41.92884
  160 Torsion                 23    21    19    32          61.43656
  161 Torsion                 23    21    24    25         -38.68731
  162 Torsion                 23    21    24    26          77.82234
  163 Torsion                 23    21    24    27        -158.70654
  164 Torsion                 24    21    19    32        -178.43992
  165 Torsion                 24    27    28    29        -179.92809
  166 Torsion                 24    27    28    30         -60.12821
  167 Torsion                 24    27    28    31          60.09046
  168 Torsion                 25    24    27    28          59.06707
  169 Torsion                 26    24    27    28         -57.51954
  170 Torsion                 33    32    34    35         178.14958
  171 Torsion                 33    32    34    36          -2.07460


            XYZ format geometry
            -------------------
    36
 geometry
 H                     2.54481992    -2.93565367     2.31423610
 C                     1.81255480    -2.13788888     2.41921294
 H                     1.95886799    -1.63353941     3.37384065
 H                     0.80461564    -2.54753743     2.37562718
 C                     1.99647588    -1.13691164     1.30375358
 O                     2.24809520     0.03335878     1.55932914
 N                     1.83492744    -1.59072728     0.06075420
 H                     1.61387733    -2.56428955    -0.06333589
 C                     2.03360589    -0.77713517    -1.14880636
 H                     3.04837374    -0.37617183    -1.12609968
 C                     1.91147421    -1.70671623    -2.36262385
 H                     2.11345714    -1.14177706    -3.27383932
 H                     2.63556988    -2.51908522    -2.28660351
 H                     0.90226433    -2.11956280    -2.41951968
 C                     1.08418889     0.43800378    -1.27754917
 O                     1.29787011     1.29714379    -2.12555848
 N                     0.04810686     0.51974602    -0.43757165
 H                    -0.07766553    -0.23578757     0.21734766
 C                    -0.87620352     1.65454371    -0.33415731
 H                    -1.17097322     1.95508563    -1.34110636
 C                    -2.13805217     1.22313459     0.43767243
 H                    -1.88661583     1.05024941     1.48525368
 H                    -2.85430995     2.04551114     0.39726692
 C                    -2.82695040    -0.03132373    -0.12174117
 H                    -3.86014913    -0.02414060     0.22761366
 H                    -2.84394235     0.03129602    -1.21029022
 S                    -2.09554779    -1.62152086     0.37735834
 C                    -3.22488206    -2.75048668    -0.47917262
 H                    -2.92640596    -3.78107337    -0.28303976
 H                    -4.24201057    -2.59598564    -0.11716154
 H                    -3.18919448    -2.56231614    -1.55242899
 C                    -0.25516816     2.89406331     0.34103394
 O                    -0.85416763     3.96254766     0.33488391
 N                     0.91848845     2.78888658     0.95658006
 H                     1.40273142     1.90190882     0.98777613
 H                     1.30815352     3.61176550     1.38342009

 ==============================================================================
                                internuclear distances
 ------------------------------------------------------------------------------
       center one      |      center two      | atomic units |  angstroms
 ------------------------------------------------------------------------------
    2 C                |   1 H                |     2.05595  |     1.08796
    3 H                |   2 C                |     2.05893  |     1.08954
    4 H                |   2 C                |     2.05768  |     1.08888
    5 C                |   2 C                |     2.85344  |     1.50998
    6 O                |   5 C                |     2.31302  |     1.22400
    7 N                |   5 C                |     2.51915  |     1.33308
    8 H                |   7 N                |     1.90111  |     1.00602
    9 C                |   7 N                |     2.78017  |     1.47120
   10 H                |   9 C                |     2.06235  |     1.09135
   11 C                |   9 C                |     2.89837  |     1.53375
   12 H                |  11 C                |     2.06168  |     1.09099
   13 H                |  11 C                |     2.06148  |     1.09089
   14 H                |  11 C                |     2.06334  |     1.09187
   15 C                |   9 C                |     2.92421  |     1.54743
   16 O                |  15 C                |     2.31667  |     1.22593
   17 N                |  15 C                |     2.52525  |     1.33630
   18 H                |  17 N                |     1.90438  |     1.00775
   19 C                |  17 N                |     2.77269  |     1.46725
   20 H                |  19 C                |     2.06245  |     1.09140
   21 C                |  19 C                |     2.91171  |     1.54081
   22 H                |  21 C                |     2.06191  |     1.09112
   23 H                |  21 C                |     2.06228  |     1.09131
   24 C                |  21 C                |     2.90378  |     1.53662
   25 H                |  24 C                |     2.06110  |     1.09069
   26 H                |  24 C                |     2.06071  |     1.09048
   27 S                |  24 C                |     3.43950  |     1.82010
   28 C                |  27 S                |     3.42432  |     1.81207
   29 H                |  28 C                |     2.06116  |     1.09072
   30 H                |  28 C                |     2.06099  |     1.09063
   31 H                |  28 C                |     2.06020  |     1.09021
   32 C                |  19 C                |     2.91409  |     1.54207
   33 O                |  32 C                |     2.31482  |     1.22495
   34 N                |  32 C                |     2.51229  |     1.32945
   35 H                |  34 N                |     1.91058  |     1.01104
   36 H                |  34 N                |     1.90024  |     1.00557
 ------------------------------------------------------------------------------
                         number of included internuclear distances:         35
 ==============================================================================



 ==============================================================================
                                 internuclear angles
 ------------------------------------------------------------------------------
        center 1       |       center 2       |       center 3       |  degrees
 ------------------------------------------------------------------------------
    1 H                |   2 C                |   3 H                |   109.49
    1 H                |   2 C                |   4 H                |   110.08
    1 H                |   2 C                |   5 C                |   109.44
    3 H                |   2 C                |   4 H                |   109.48
    3 H                |   2 C                |   5 C                |   108.91
    4 H                |   2 C                |   5 C                |   109.43
    2 C                |   5 C                |   6 O                |   120.30
    2 C                |   5 C                |   7 N                |   116.64
    6 O                |   5 C                |   7 N                |   123.03
    5 C                |   7 N                |   8 H                |   118.10
    5 C                |   7 N                |   9 C                |   124.19
    8 H                |   7 N                |   9 C                |   117.61
    7 N                |   9 C                |  10 H                |   108.16
    7 N                |   9 C                |  11 C                |   107.74
    7 N                |   9 C                |  15 C                |   114.82
   10 H                |   9 C                |  11 C                |   108.25
   10 H                |   9 C                |  15 C                |   106.48
   11 C                |   9 C                |  15 C                |   111.18
    9 C                |  11 C                |  12 H                |   109.42
    9 C                |  11 C                |  13 H                |   110.08
    9 C                |  11 C                |  14 H                |   110.12
   12 H                |  11 C                |  13 H                |   108.72
   12 H                |  11 C                |  14 H                |   108.87
   13 H                |  11 C                |  14 H                |   109.61
    9 C                |  15 C                |  16 O                |   120.06
    9 C                |  15 C                |  17 N                |   118.13
   16 O                |  15 C                |  17 N                |   121.81
   15 C                |  17 N                |  18 H                |   117.35
   15 C                |  17 N                |  19 C                |   125.45
   18 H                |  17 N                |  19 C                |   117.09
   17 N                |  19 C                |  20 H                |   108.55
   17 N                |  19 C                |  21 C                |   109.55
   17 N                |  19 C                |  32 C                |   113.51
   20 H                |  19 C                |  21 C                |   108.55
   20 H                |  19 C                |  32 C                |   106.94
   21 C                |  19 C                |  32 C                |   109.61
   19 C                |  21 C                |  22 H                |   109.67
   19 C                |  21 C                |  23 H                |   107.94
   19 C                |  21 C                |  24 C                |   114.42
   22 H                |  21 C                |  23 H                |   107.83
   22 H                |  21 C                |  24 C                |   108.87
   23 H                |  21 C                |  24 C                |   107.91
   21 C                |  24 C                |  25 H                |   107.62
   21 C                |  24 C                |  26 H                |   108.88
   21 C                |  24 C                |  27 S                |   115.68
   25 H                |  24 C                |  26 H                |   107.73
   25 H                |  24 C                |  27 S                |   107.37
   26 H                |  24 C                |  27 S                |   109.28
   24 C                |  27 S                |  28 C                |    99.45
   27 S                |  28 C                |  29 H                |   109.46
   27 S                |  28 C                |  30 H                |   109.64
   27 S                |  28 C                |  31 H                |   109.72
   29 H                |  28 C                |  30 H                |   109.23
   29 H                |  28 C                |  31 H                |   109.34
   30 H                |  28 C                |  31 H                |   109.44
   19 C                |  32 C                |  33 O                |   120.13
   19 C                |  32 C                |  34 N                |   119.65
   33 O                |  32 C                |  34 N                |   120.20
   32 C                |  34 N                |  35 H                |   120.43
   32 C                |  34 N                |  36 H                |   118.29
   35 H                |  34 N                |  36 H                |   121.28
 ------------------------------------------------------------------------------
                            number of included internuclear angles:         61
 ==============================================================================



  library name resolved from: environment
  library file name is: </opt/rit/el9/20230413/app/linux-rhel9-x86_64_v3/gcc-11.2.1/nwchem-7.2.0-oxtctbuhfuzyfaoziquq6bki22grib3g/share/nwchem/libraries/>
  


 Summary of "ao basis" -> "" (cartesian)
 ------------------------------------------------------------------------------
       Tag                 Description            Shells   Functions and Types
 ---------------- ------------------------------  ------  ---------------------
 *                        aug-cc-pvdz                 on all atoms 


                      Basis "ao basis" -> "ao basis" (cartesian)
                      -----
  H (Hydrogen)
  ------------
            Exponent  Coefficients 
       -------------- ---------------------------------------------------------
  1 S  1.30100000E+01  0.019685
  1 S  1.96200000E+00  0.137977
  1 S  4.44600000E-01  0.478148

  2 S  1.22000000E-01  1.000000

  3 S  2.97400000E-02  1.000000

  4 P  7.27000000E-01  1.000000

  5 P  1.41000000E-01  1.000000

  C (Carbon)
  ----------
            Exponent  Coefficients 
       -------------- ---------------------------------------------------------
  1 S  6.66500000E+03  0.000692
  1 S  1.00000000E+03  0.005329
  1 S  2.28000000E+02  0.027077
  1 S  6.47100000E+01  0.101718
  1 S  2.10600000E+01  0.274740
  1 S  7.49500000E+00  0.448564
  1 S  2.79700000E+00  0.285074
  1 S  5.21500000E-01  0.015204

  2 S  6.66500000E+03 -0.000146
  2 S  1.00000000E+03 -0.001154
  2 S  2.28000000E+02 -0.005725
  2 S  6.47100000E+01 -0.023312
  2 S  2.10600000E+01 -0.063955
  2 S  7.49500000E+00 -0.149981
  2 S  2.79700000E+00 -0.127262
  2 S  5.21500000E-01  0.544529

  3 S  1.59600000E-01  1.000000

  4 S  4.69000000E-02  1.000000

  5 P  9.43900000E+00  0.038109
  5 P  2.00200000E+00  0.209480
  5 P  5.45600000E-01  0.508557

  6 P  1.51700000E-01  1.000000

  7 P  4.04100000E-02  1.000000

  8 D  5.50000000E-01  1.000000

  9 D  1.51000000E-01  1.000000

  O (Oxygen)
  ----------
            Exponent  Coefficients 
       -------------- ---------------------------------------------------------
  1 S  1.17200000E+04  0.000710
  1 S  1.75900000E+03  0.005470
  1 S  4.00800000E+02  0.027837
  1 S  1.13700000E+02  0.104800
  1 S  3.70300000E+01  0.283062
  1 S  1.32700000E+01  0.448719
  1 S  5.02500000E+00  0.270952
  1 S  1.01300000E+00  0.015458

  2 S  1.17200000E+04 -0.000160
  2 S  1.75900000E+03 -0.001263
  2 S  4.00800000E+02 -0.006267
  2 S  1.13700000E+02 -0.025716
  2 S  3.70300000E+01 -0.070924
  2 S  1.32700000E+01 -0.165411
  2 S  5.02500000E+00 -0.116955
  2 S  1.01300000E+00  0.557368

  3 S  3.02300000E-01  1.000000

  4 S  7.89600000E-02  1.000000

  5 P  1.77000000E+01  0.043018
  5 P  3.85400000E+00  0.228913
  5 P  1.04600000E+00  0.508728

  6 P  2.75300000E-01  1.000000

  7 P  6.85600000E-02  1.000000

  8 D  1.18500000E+00  1.000000

  9 D  3.32000000E-01  1.000000

  N (Nitrogen)
  ------------
            Exponent  Coefficients 
       -------------- ---------------------------------------------------------
  1 S  9.04600000E+03  0.000700
  1 S  1.35700000E+03  0.005389
  1 S  3.09300000E+02  0.027406
  1 S  8.77300000E+01  0.103207
  1 S  2.85600000E+01  0.278723
  1 S  1.02100000E+01  0.448540
  1 S  3.83800000E+00  0.278238
  1 S  7.46600000E-01  0.015440

  2 S  9.04600000E+03 -0.000153
  2 S  1.35700000E+03 -0.001208
  2 S  3.09300000E+02 -0.005992
  2 S  8.77300000E+01 -0.024544
  2 S  2.85600000E+01 -0.067459
  2 S  1.02100000E+01 -0.158078
  2 S  3.83800000E+00 -0.121831
  2 S  7.46600000E-01  0.549003

  3 S  2.24800000E-01  1.000000

  4 S  6.12400000E-02  1.000000

  5 P  1.35500000E+01  0.039919
  5 P  2.91700000E+00  0.217169
  5 P  7.97300000E-01  0.510319

  6 P  2.18500000E-01  1.000000

  7 P  5.61100000E-02  1.000000

  8 D  8.17000000E-01  1.000000

  9 D  2.30000000E-01  1.000000

  S (Sulphur)
  -----------
            Exponent  Coefficients 
       -------------- ---------------------------------------------------------
  1 S  1.10800000E+05  0.000248
  1 S  1.66100000E+04  0.001920
  1 S  3.78100000E+03  0.009962
  1 S  1.07100000E+03  0.040298
  1 S  3.49800000E+02  0.128604
  1 S  1.26300000E+02  0.303480
  1 S  4.92600000E+01  0.421432
  1 S  2.01600000E+01  0.230781
  1 S  5.72000000E+00  0.017897
  1 S  2.18200000E+00 -0.002975
  1 S  4.32700000E-01  0.000850

  2 S  1.10800000E+05 -0.000069
  2 S  1.66100000E+04 -0.000528
  2 S  3.78100000E+03 -0.002797
  2 S  1.07100000E+03 -0.011265
  2 S  3.49800000E+02 -0.038883
  2 S  1.26300000E+02 -0.099503
  2 S  4.92600000E+01 -0.199740
  2 S  2.01600000E+01 -0.123360
  2 S  5.72000000E+00  0.513194
  2 S  2.18200000E+00  0.607120
  2 S  4.32700000E-01  0.039675

  3 S  1.10800000E+05  0.000020
  3 S  1.66100000E+04  0.000153
  3 S  3.78100000E+03  0.000810
  3 S  1.07100000E+03  0.003290
  3 S  3.49800000E+02  0.011297
  3 S  1.26300000E+02  0.029639
  3 S  4.92600000E+01  0.059985
  3 S  2.01600000E+01  0.041325
  3 S  5.72000000E+00 -0.207474
  3 S  2.18200000E+00 -0.392889
  3 S  4.32700000E-01  0.632840

  4 S  1.57000000E-01  1.000000

  5 S  5.07000000E-02  1.000000

  6 P  3.99700000E+02  0.004475
  6 P  9.41900000E+01  0.034171
  6 P  2.97500000E+01  0.144250
  6 P  1.07700000E+01  0.353928
  6 P  4.11900000E+00  0.459085
  6 P  1.62500000E+00  0.206383
  6 P  4.72600000E-01  0.010214

  7 P  3.99700000E+02 -0.001163
  7 P  9.41900000E+01 -0.008657
  7 P  2.97500000E+01 -0.039089
  7 P  1.07700000E+01 -0.093463
  7 P  4.11900000E+00 -0.147994
  7 P  1.62500000E+00  0.030190
  7 P  4.72600000E-01  0.561573

  8 P  1.40700000E-01  1.000000

  9 P  3.99000000E-02  1.000000

 10 D  4.79000000E-01  1.000000

 11 D  1.52000000E-01  1.000000



 Summary of "ao basis" -> "ao basis" (cartesian)
 ------------------------------------------------------------------------------
       Tag                 Description            Shells   Functions and Types
 ---------------- ------------------------------  ------  ---------------------
 H                        aug-cc-pvdz                5        9   3s2p
 C                        aug-cc-pvdz                9       25   4s3p2d
 O                        aug-cc-pvdz                9       25   4s3p2d
 N                        aug-cc-pvdz                9       25   4s3p2d
 S                        aug-cc-pvdz               11       29   5s4p2d


                                 NWChem SCF Module
                                 -----------------



  ao basis        = "ao basis"
  functions       =   600
  atoms           =    36
  closed shells   =    70
  open shells     =     0
  charge          =   0.00
  wavefunction    = RHF 
  input vectors   = atomic
  output vectors  = ./ALA_MET_2.movecs
  use symmetry    = F
  symmetry adapt  = F


 Summary of "ao basis" -> "ao basis" (cartesian)
 ------------------------------------------------------------------------------
       Tag                 Description            Shells   Functions and Types
 ---------------- ------------------------------  ------  ---------------------
 H                        aug-cc-pvdz                5        9   3s2p
 C                        aug-cc-pvdz                9       25   4s3p2d
 O                        aug-cc-pvdz                9       25   4s3p2d
 N                        aug-cc-pvdz                9       25   4s3p2d
 S                        aug-cc-pvdz               11       29   5s4p2d



 Forming initial guess at       1.7s


 !! The overlap matrix has   5 vectors deemed linearly dependent with
    eigenvalues:
 3.44D-06 4.04D-06 7.04D-06 7.49D-06 9.91D-06


      Superposition of Atomic Density Guess
      -------------------------------------

 Sum of atomic energies:       -1170.84498976

      Non-variational initial energy
      ------------------------------

 Total energy =   -1181.697407
 1-e energy   =   -4522.830233
 2-e energy   =    1870.897748
 HOMO         =      -0.258359
 LUMO         =       0.013390


 Starting SCF solution at     236.0s



 ----------------------------------------------
         Quadratically convergent ROHF

 Convergence threshold     :          1.000E-04
 Maximum no. of iterations :           30
 Final Fock-matrix accuracy:          1.000E-10
 ----------------------------------------------


              iter       energy          gnorm     gmax       time
             ----- ------------------- --------- --------- --------
                 1    -1174.9999343632  2.42D+00  1.72D-01    519.5
                 2    -1175.3180164291  8.44D-01  3.97D-02   1057.0
                 3    -1175.3811216071  6.69D-02  4.89D-03   1803.9
                 4    -1175.3817889607  4.27D-03  3.26D-04   2791.2
                 5    -1175.3817926113  8.92D-06  3.73D-07   4647.4


       Final RHF  results 
       ------------------ 

         Total SCF energy =  -1175.381792611345
      One-electron energy =  -4535.178327972517
      Two-electron energy =   1889.561457345067
 Nuclear repulsion energy =   1470.235078016105

        Time for solution =   4417.7s


             Final eigenvalues
             -----------------

              1      
    1  -91.9663
    2  -20.5461
    3  -20.5262
    4  -20.5042
    5  -15.6188
    6  -15.5951
    7  -15.5686
    8  -11.3748
    9  -11.3600
   10  -11.3402
   11  -11.3087
   12  -11.2938
   13  -11.2814
   14  -11.2806
   15  -11.2578
   16  -11.2571
   17  -11.2540
   18   -8.9678
   19   -6.6501
   20   -6.6489
   21   -6.6469
   22   -1.4100
   23   -1.3864
   24   -1.3660
   25   -1.2689
   26   -1.2447
   27   -1.1929
   28   -1.1066
   29   -1.0748
   30   -1.0467
   31   -1.0080
   32   -0.9740
   33   -0.9046
   34   -0.8738
   35   -0.8292
   36   -0.8187
   37   -0.7984
   38   -0.7805
   39   -0.7312
   40   -0.7243
   41   -0.7019
   42   -0.6894
   43   -0.6616
   44   -0.6459
   45   -0.6349
   46   -0.6265
   47   -0.6146
   48   -0.6078
   49   -0.6012
   50   -0.5968
   51   -0.5922
   52   -0.5893
   53   -0.5847
   54   -0.5725
   55   -0.5558
   56   -0.5537
   57   -0.5482
   58   -0.5362
   59   -0.5240
   60   -0.5129
   61   -0.4997
   62   -0.4904
   63   -0.4545
   64   -0.4452
   65   -0.4438
   66   -0.4271
   67   -0.4047
   68   -0.3887
   69   -0.3838
   70   -0.3524
   71    0.0181
   72    0.0301
   73    0.0357
   74    0.0387
   75    0.0481
   76    0.0508
   77    0.0527
   78    0.0579
   79    0.0612
   80    0.0703

                       ROHF Final Molecular Orbital Analysis
                       -------------------------------------

 Vector   22  Occ=2.000000D+00  E=-1.409995D+00
              MO Center=  2.1D+00, -4.4D-01,  1.2D+00, r^2= 1.3D+00
   Bfn.  Coefficient  Atom+Function         Bfn.  Coefficient  Atom+Function  
  ----- ------------  ---------------      ----- ------------  ---------------
    80      0.345643   6 O  s                79      0.341132   6 O  s         
    54      0.241431   5 C  s                12      0.166860   2 C  s         
   225      0.155686  15 C  s         

 Vector   23  Occ=2.000000D+00  E=-1.386396D+00
              MO Center=  1.1D+00,  9.7D-01, -1.5D+00, r^2= 1.8D+00
   Bfn.  Coefficient  Atom+Function         Bfn.  Coefficient  Atom+Function  
  ----- ------------  ---------------      ----- ------------  ---------------
   250      0.357740  16 O  s               249      0.335114  16 O  s         
   224      0.238793  15 C  s         

 Vector   24  Occ=2.000000D+00  E=-1.365971D+00
              MO Center= -4.5D-01,  3.4D+00,  3.1D-01, r^2= 1.3D+00
   Bfn.  Coefficient  Atom+Function         Bfn.  Coefficient  Atom+Function  
  ----- ------------  ---------------      ----- ------------  ---------------
   535      0.375091  33 O  s               534      0.347623  33 O  s         
   509      0.242903  32 C  s         

 Vector   25  Occ=2.000000D+00  E=-1.268861D+00
              MO Center=  1.7D+00, -1.0D+00,  9.6D-02, r^2= 2.4D+00
   Bfn.  Coefficient  Atom+Function         Bfn.  Coefficient  Atom+Function  
  ----- ------------  ---------------      ----- ------------  ---------------
   105      0.383829   7 N  s               104      0.324537   7 N  s         
    80     -0.217247   6 O  s               139     -0.191502   9 C  s         
    79     -0.177418   6 O  s               225      0.155980  15 C  s         

 Vector   26  Occ=2.000000D+00  E=-1.244690D+00
              MO Center=  3.0D-01,  6.4D-01, -4.6D-01, r^2= 3.0D+00
   Bfn.  Coefficient  Atom+Function         Bfn.  Coefficient  Atom+Function  
  ----- ------------  ---------------      ----- ------------  ---------------
   275      0.360920  17 N  s               274      0.317053  17 N  s         
   250     -0.189961  16 O  s               309     -0.164741  19 C  s         
   249     -0.154891  16 O  s         

 Vector   27  Occ=2.000000D+00  E=-1.192903D+00
              MO Center=  5.6D-01,  2.8D+00,  7.3D-01, r^2= 1.7D+00
   Bfn.  Coefficient  Atom+Function         Bfn.  Coefficient  Atom+Function  
  ----- ------------  ---------------      ----- ------------  ---------------
   560      0.378683  34 N  s               559      0.367292  34 N  s         
   309     -0.223917  19 C  s               535     -0.199421  33 O  s         
   512      0.174872  32 C  px              534     -0.168488  33 O  s         
   583      0.161386  35 H  s               592      0.158872  36 H  s         

 Vector   28  Occ=2.000000D+00  E=-1.106617D+00
              MO Center= -2.1D+00, -2.0D-01, -1.4D-02, r^2= 4.0D+00
   Bfn.  Coefficient  Atom+Function         Bfn.  Coefficient  Atom+Function  
  ----- ------------  ---------------      ----- ------------  ---------------
   385      0.231344  24 C  s               429      0.208367  27 S  s         
   342      0.196578  21 C  s         

 Vector   29  Occ=2.000000D+00  E=-1.074797D+00
              MO Center=  1.4D+00, -1.2D+00, -5.2D-01, r^2= 6.0D+00
   Bfn.  Coefficient  Atom+Function         Bfn.  Coefficient  Atom+Function  
  ----- ------------  ---------------      ----- ------------  ---------------
   138      0.228389   9 C  s               172      0.197302  11 C  s         

 Vector   30  Occ=2.000000D+00  E=-1.046667D+00
              MO Center= -1.6D+00, -5.8D-01, -1.3D-01, r^2= 7.4D+00
   Bfn.  Coefficient  Atom+Function         Bfn.  Coefficient  Atom+Function  
  ----- ------------  ---------------      ----- ------------  ---------------
   457     -0.201868  28 C  s               429     -0.192090  27 S  s         
   342      0.184129  21 C  s               308      0.165644  19 C  s         

 Vector   31  Occ=2.000000D+00  E=-1.008049D+00
              MO Center=  1.8D+00, -1.8D+00,  1.2D+00, r^2= 4.9D+00
   Bfn.  Coefficient  Atom+Function         Bfn.  Coefficient  Atom+Function  
  ----- ------------  ---------------      ----- ------------  ---------------
    11      0.317303   2 C  s                55      0.169415   5 C  s         
   300     -0.169307  18 H  s               172      0.167487  11 C  s         

 Vector   32  Occ=2.000000D+00  E=-9.740366D-01
              MO Center= -1.7D+00, -1.8D-01, -3.5D-01, r^2= 7.6D+00
   Bfn.  Coefficient  Atom+Function         Bfn.  Coefficient  Atom+Function  
  ----- ------------  ---------------      ----- ------------  ---------------
   308      0.206327  19 C  s               385     -0.202506  24 C  s         
   457      0.202661  28 C  s               315      0.177311  19 C  py        
   458      0.156010  28 C  s         

 Vector   33  Occ=2.000000D+00  E=-9.045661D-01
              MO Center=  8.1D-01, -9.7D-01, -1.1D+00, r^2= 7.6D+00
   Bfn.  Coefficient  Atom+Function         Bfn.  Coefficient  Atom+Function  
  ----- ------------  ---------------      ----- ------------  ---------------
   139      0.290823   9 C  s               172     -0.223529  11 C  s         
   145      0.191348   9 C  py              173     -0.190153  11 C  s         
   138      0.176102   9 C  s               144     -0.156571   9 C  px        

 Vector   34  Occ=2.000000D+00  E=-8.738440D-01
              MO Center= -1.3D+00, -2.5D-01, -1.4D-01, r^2= 9.3D+00
   Bfn.  Coefficient  Atom+Function         Bfn.  Coefficient  Atom+Function  
  ----- ------------  ---------------      ----- ------------  ---------------
   309      0.259502  19 C  s               430      0.214180  27 S  s         
   429      0.212062  27 S  s               342     -0.179900  21 C  s         
   458     -0.162376  28 C  s               457     -0.157424  28 C  s         

 Vector   35  Occ=2.000000D+00  E=-8.292307D-01
              MO Center=  1.5D+00, -8.6D-01,  2.1D-01, r^2= 5.1D+00
   Bfn.  Coefficient  Atom+Function         Bfn.  Coefficient  Atom+Function  
  ----- ------------  ---------------      ----- ------------  ---------------
   109      0.270880   7 N  pz              128     -0.212028   8 H  s         
   139      0.203188   9 C  s                54      0.201687   5 C  s         
   105     -0.189607   7 N  s                62     -0.184918   5 C  pz        
   108      0.170626   7 N  py               80     -0.155303   6 O  s         
   309      0.155270  19 C  s                76      0.150132   5 C  dyz       

 Vector   36  Occ=2.000000D+00  E=-8.187401D-01
              MO Center= -1.1D+00, -1.2D-01, -8.5D-02, r^2= 6.9D+00
   Bfn.  Coefficient  Atom+Function         Bfn.  Coefficient  Atom+Function  
  ----- ------------  ---------------      ----- ------------  ---------------
   309      0.319234  19 C  s               343     -0.293004  21 C  s         
   430     -0.274526  27 S  s               386      0.267693  24 C  s         
   429     -0.201763  27 S  s               275     -0.178659  17 N  s         
   225      0.167304  15 C  s               298     -0.166002  18 H  s         
   385      0.164374  24 C  s         

 Vector   37  Occ=2.000000D+00  E=-7.984457D-01
              MO Center= -4.8D-01, -1.1D-03, -2.2D-01, r^2= 7.4D+00
   Bfn.  Coefficient  Atom+Function         Bfn.  Coefficient  Atom+Function  
  ----- ------------  ---------------      ----- ------------  ---------------
   386      0.286731  24 C  s               343     -0.257103  21 C  s         
   430     -0.191356  27 S  s               511      0.189160  32 C  s         
   387     -0.187710  24 C  s               277     -0.186552  17 N  px        
   145     -0.177133   9 C  py              429     -0.170280  27 S  s         

 Vector   38  Occ=2.000000D+00  E=-7.804523D-01
              MO Center=  1.4D-01,  1.9D+00,  2.4D-01, r^2= 4.4D+00
   Bfn.  Coefficient  Atom+Function         Bfn.  Coefficient  Atom+Function  
  ----- ------------  ---------------      ----- ------------  ---------------
   562      0.267381  34 N  px              225      0.226612  15 C  s         
   315     -0.223412  19 C  py              511      0.200771  32 C  s         
   509     -0.195087  32 C  s               298     -0.187583  18 H  s         
   275     -0.176385  17 N  s               592      0.176262  36 H  s         
   515     -0.165597  32 C  px              279     -0.161354  17 N  pz        

 Vector   39  Occ=2.000000D+00  E=-7.312337D-01
              MO Center=  7.8D-01,  1.5D+00,  4.2D-01, r^2= 5.3D+00
   Bfn.  Coefficient  Atom+Function         Bfn.  Coefficient  Atom+Function  
  ----- ------------  ---------------      ----- ------------  ---------------
   563      0.279442  34 N  py              583     -0.260541  35 H  s         
   315     -0.240823  19 C  py              225      0.211098  15 C  s         
   510      0.208495  32 C  s               511     -0.198518  32 C  s         
   584     -0.165698  35 H  s         

 Vector   40  Occ=2.000000D+00  E=-7.243322D-01
              MO Center=  1.1D+00, -1.5D-01, -1.2D-01, r^2= 6.9D+00
   Bfn.  Coefficient  Atom+Function         Bfn.  Coefficient  Atom+Function  
  ----- ------------  ---------------      ----- ------------  ---------------
   145      0.372400   9 C  py              225     -0.301476  15 C  s         
   108     -0.200772   7 N  py              226      0.198067  15 C  s         
   139      0.180222   9 C  s               128      0.172603   8 H  s         
   231      0.156006  15 C  py        

 Vector   41  Occ=2.000000D+00  E=-7.018631D-01
              MO Center=  1.0D+00, -8.6D-02, -9.1D-02, r^2= 7.6D+00
   Bfn.  Coefficient  Atom+Function         Bfn.  Coefficient  Atom+Function  
  ----- ------------  ---------------      ----- ------------  ---------------
   108      0.187194   7 N  py              315      0.166173  19 C  py        
   162     -0.164180  10 H  s               141     -0.161109   9 C  px        
   278     -0.154496  17 N  py        

 Vector   42  Occ=2.000000D+00  E=-6.894062D-01
              MO Center=  1.7D+00, -2.7D-01,  1.0D+00, r^2= 5.6D+00
   Bfn.  Coefficient  Atom+Function         Bfn.  Coefficient  Atom+Function  
  ----- ------------  ---------------      ----- ------------  ---------------
    83      0.294679   6 O  py               80      0.246489   6 O  s         
    59     -0.231242   5 C  pz               15     -0.186014   2 C  py        
    86      0.162155   6 O  py        

 Vector   43  Occ=2.000000D+00  E=-6.615622D-01
              MO Center=  5.9D-01,  8.9D-01, -2.3D-01, r^2= 8.5D+00
   Bfn.  Coefficient  Atom+Function         Bfn.  Coefficient  Atom+Function  
  ----- ------------  ---------------      ----- ------------  ---------------
   538     -0.172496  33 O  py              141      0.170959   9 C  px        
   312      0.159986  19 C  py              512     -0.153745  32 C  px        

 Vector   44  Occ=2.000000D+00  E=-6.459219D-01
              MO Center= -1.1D+00,  7.9D-01,  9.9D-02, r^2= 8.2D+00
   Bfn.  Coefficient  Atom+Function         Bfn.  Coefficient  Atom+Function  
  ----- ------------  ---------------      ----- ------------  ---------------
   592      0.186255  36 H  s               409      0.159837  25 H  s         
   563      0.160233  34 N  py              309     -0.158496  19 C  s         
   390      0.158919  24 C  pz              347      0.157674  21 C  pz        

 Vector   45  Occ=2.000000D+00  E=-6.349219D-01
              MO Center=  7.8D-01, -8.0D-01,  7.6D-01, r^2= 9.4D+00
   Bfn.  Coefficient  Atom+Function         Bfn.  Coefficient  Atom+Function  
  ----- ------------  ---------------      ----- ------------  ---------------
   139      0.273658   9 C  s                14     -0.235940   2 C  px        
    57     -0.187754   5 C  px                1     -0.177629   1 H  s         
    44      0.169321   4 H  s         

 Vector   46  Occ=2.000000D+00  E=-6.264950D-01
              MO Center=  1.8D-01, -6.4D-01, -1.7D-01, r^2= 1.1D+01
   Bfn.  Coefficient  Atom+Function         Bfn.  Coefficient  Atom+Function  
  ----- ------------  ---------------      ----- ------------  ---------------
    14      0.179069   2 C  px              254     -0.176296  16 O  pz        
   139     -0.154744   9 C  s               228     -0.153884  15 C  py        

 Vector   47  Occ=2.000000D+00  E=-6.146069D-01
              MO Center= -7.9D-01, -6.6D-01, -2.9D-01, r^2= 1.1D+01
   Bfn.  Coefficient  Atom+Function         Bfn.  Coefficient  Atom+Function  
  ----- ------------  ---------------      ----- ------------  ---------------
   462      0.180394  28 C  pz              499     -0.175816  31 H  s         
   482      0.154853  29 H  s               253     -0.152508  16 O  py        
   254      0.152669  16 O  pz        

 Vector   48  Occ=2.000000D+00  E=-6.078037D-01
              MO Center= -2.2D+00, -7.1D-01, -4.3D-02, r^2= 1.1D+01
   Bfn.  Coefficient  Atom+Function         Bfn.  Coefficient  Atom+Function  
  ----- ------------  ---------------      ----- ------------  ---------------
   482     -0.293703  29 H  s               461      0.270434  28 C  py        
   481     -0.270830  29 H  s               346      0.181316  21 C  py        
   538      0.180391  33 O  py              460     -0.153198  28 C  px        
   490      0.152979  30 H  s         

 Vector   49  Occ=2.000000D+00  E=-6.011756D-01
              MO Center= -2.0D+00, -9.2D-01, -3.9D-01, r^2= 1.0D+01
   Bfn.  Coefficient  Atom+Function         Bfn.  Coefficient  Atom+Function  
  ----- ------------  ---------------      ----- ------------  ---------------
   490     -0.264670  30 H  s               460      0.254404  28 C  px        
   462     -0.171250  28 C  pz              309      0.151589  19 C  s         
   499      0.151350  31 H  s         

 Vector   50  Occ=2.000000D+00  E=-5.968018D-01
              MO Center=  7.9D-01, -5.8D-01,  3.4D-01, r^2= 9.3D+00
   Bfn.  Coefficient  Atom+Function         Bfn.  Coefficient  Atom+Function  
  ----- ------------  ---------------      ----- ------------  ---------------
    58      0.249374   5 C  py               83     -0.229547   6 O  py        
    84     -0.175848   6 O  pz        

 Vector   51  Occ=2.000000D+00  E=-5.921711D-01
              MO Center=  5.1D-02,  3.7D-01, -7.8D-01, r^2= 9.3D+00
   Bfn.  Coefficient  Atom+Function         Bfn.  Coefficient  Atom+Function  
  ----- ------------  ---------------      ----- ------------  ---------------
   229      0.231894  15 C  pz              253      0.204149  16 O  py        

 Vector   52  Occ=2.000000D+00  E=-5.892580D-01
              MO Center= -1.1D-01, -4.0D-01,  2.2D-01, r^2= 1.2D+01
   Bfn.  Coefficient  Atom+Function         Bfn.  Coefficient  Atom+Function  
  ----- ------------  ---------------      ----- ------------  ---------------
    36      0.185750   3 H  s                15      0.164106   2 C  py        
   462     -0.163724  28 C  pz               35      0.159304   3 H  s         
   499      0.154252  31 H  s               313     -0.152088  19 C  pz        

 Vector   53  Occ=2.000000D+00  E=-5.846787D-01
              MO Center=  1.4D+00, -1.1D+00,  3.1D-01, r^2= 1.1D+01
   Bfn.  Coefficient  Atom+Function         Bfn.  Coefficient  Atom+Function  
  ----- ------------  ---------------      ----- ------------  ---------------
    35      0.262884   3 H  s                16      0.229826   2 C  pz        
    36      0.221884   3 H  s               196      0.202564  12 H  s         
   197      0.199771  12 H  s               176      0.197005  11 C  py        
    15      0.176494   2 C  py        

 Vector   54  Occ=2.000000D+00  E=-5.725438D-01
              MO Center= -4.5D-01,  1.1D+00, -3.4D-01, r^2= 1.1D+01
   Bfn.  Coefficient  Atom+Function         Bfn.  Coefficient  Atom+Function  
  ----- ------------  ---------------      ----- ------------  ---------------
   513      0.223634  32 C  py              538     -0.212411  33 O  py        
   537      0.196415  33 O  px              535     -0.168084  33 O  s         
   278      0.160753  17 N  py              333     -0.151011  20 H  s         

 Vector   55  Occ=2.000000D+00  E=-5.558263D-01
              MO Center=  2.1D-01,  6.2D-01, -4.2D-01, r^2= 1.1D+01
   Bfn.  Coefficient  Atom+Function         Bfn.  Coefficient  Atom+Function  
  ----- ------------  ---------------      ----- ------------  ---------------
   205      0.193171  13 H  s               206      0.192629  13 H  s         
   539      0.167968  33 O  pz              514      0.160953  32 C  pz        
   175      0.153018  11 C  px        

 Vector   56  Occ=2.000000D+00  E=-5.536645D-01
              MO Center=  1.6D+00, -1.3D+00, -6.6D-02, r^2= 7.7D+00
   Bfn.  Coefficient  Atom+Function         Bfn.  Coefficient  Atom+Function  
  ----- ------------  ---------------      ----- ------------  ---------------
   197      0.226173  12 H  s               214     -0.200471  14 H  s         
     1      0.190639   1 H  s               139      0.190550   9 C  s         
    14      0.185596   2 C  px              196      0.175908  12 H  s         
   175      0.170966  11 C  px              215     -0.160597  14 H  s         
   176      0.158493  11 C  py              107     -0.156276   7 N  px        

 Vector   57  Occ=2.000000D+00  E=-5.482257D-01
              MO Center=  1.4D+00, -9.9D-01, -4.2D-01, r^2= 9.1D+00
   Bfn.  Coefficient  Atom+Function         Bfn.  Coefficient  Atom+Function  
  ----- ------------  ---------------      ----- ------------  ---------------
   177      0.282076  11 C  pz              196     -0.228663  12 H  s         
   143     -0.213215   9 C  pz              197     -0.188455  12 H  s         
    35      0.176006   3 H  s                16      0.166614   2 C  pz        
   109      0.167409   7 N  pz               55      0.165558   5 C  s         
    12     -0.158022   2 C  s         

 Vector   58  Occ=2.000000D+00  E=-5.361760D-01
              MO Center=  5.0D-01,  7.6D-02, -2.9D-01, r^2= 1.0D+01
   Bfn.  Coefficient  Atom+Function         Bfn.  Coefficient  Atom+Function  
  ----- ------------  ---------------      ----- ------------  ---------------
   215     -0.161647  14 H  s               175      0.150921  11 C  px        
   205      0.150350  13 H  s         

 Vector   59  Occ=2.000000D+00  E=-5.240394D-01
              MO Center= -8.2D-01,  4.1D-01, -3.5D-02, r^2= 8.5D+00
   Bfn.  Coefficient  Atom+Function         Bfn.  Coefficient  Atom+Function  
  ----- ------------  ---------------      ----- ------------  ---------------
   367      0.231186  22 H  s               366      0.215314  22 H  s         
   347      0.193643  21 C  pz              345      0.189572  21 C  px        
   376     -0.152561  23 H  s         

 Vector   60  Occ=2.000000D+00  E=-5.128741D-01
              MO Center=  5.4D-02,  3.2D-01, -4.8D-01, r^2= 8.6D+00
   Bfn.  Coefficient  Atom+Function         Bfn.  Coefficient  Atom+Function  
  ----- ------------  ---------------      ----- ------------  ---------------
   343      0.258623  21 C  s               314      0.229017  19 C  px        
   311      0.188201  19 C  px              345     -0.179077  21 C  px        
   309     -0.162374  19 C  s               176     -0.156062  11 C  py        

 Vector   61  Occ=2.000000D+00  E=-4.996910D-01
              MO Center= -1.2D+00,  2.1D-01, -2.0D-01, r^2= 8.4D+00
   Bfn.  Coefficient  Atom+Function         Bfn.  Coefficient  Atom+Function  
  ----- ------------  ---------------      ----- ------------  ---------------
   392      0.213987  24 C  py              389      0.203079  24 C  py        
   309     -0.188503  19 C  s               436     -0.182410  27 S  py        
   346     -0.174800  21 C  py              347     -0.171760  21 C  pz        
   313      0.164448  19 C  pz              510      0.160682  32 C  s         
   461      0.155404  28 C  py        

 Vector   62  Occ=2.000000D+00  E=-4.904401D-01
              MO Center= -1.5D+00,  6.6D-01,  3.8D-02, r^2= 7.0D+00
   Bfn.  Coefficient  Atom+Function         Bfn.  Coefficient  Atom+Function  
  ----- ------------  ---------------      ----- ------------  ---------------
   511      0.270932  32 C  s               367     -0.245469  22 H  s         
   376      0.232765  23 H  s               346      0.220462  21 C  py        
   333     -0.199647  20 H  s               436      0.196134  27 S  py        
   348      0.194770  21 C  px              313      0.193135  19 C  pz        
   389     -0.184352  24 C  py              332     -0.177203  20 H  s         

 Vector   63  Occ=2.000000D+00  E=-4.544987D-01
              MO Center= -5.0D-01, -7.5D-01, -7.7D-02, r^2= 8.0D+00
   Bfn.  Coefficient  Atom+Function         Bfn.  Coefficient  Atom+Function  
  ----- ------------  ---------------      ----- ------------  ---------------
   430      0.309389  27 S  s               435      0.247083  27 S  px        
   107     -0.202709   7 N  px              139      0.202546   9 C  s         
   252     -0.192015  16 O  px               82      0.190165   6 O  px        
   392      0.183326  24 C  py              110     -0.177596   7 N  px        
   233      0.168724  15 C  px              343     -0.167070  21 C  s         

 Vector   64  Occ=2.000000D+00  E=-4.452423D-01
              MO Center=  1.6D+00, -2.1D-01,  9.6D-01, r^2= 5.6D+00
   Bfn.  Coefficient  Atom+Function         Bfn.  Coefficient  Atom+Function  
  ----- ------------  ---------------      ----- ------------  ---------------
    84      0.437141   6 O  pz               87      0.353160   6 O  pz        
    15     -0.168020   2 C  py              343      0.159137  21 C  s         

 Vector   65  Occ=2.000000D+00  E=-4.438093D-01
              MO Center=  2.3D-01, -4.9D-01,  1.6D-01, r^2= 8.6D+00
   Bfn.  Coefficient  Atom+Function         Bfn.  Coefficient  Atom+Function  
  ----- ------------  ---------------      ----- ------------  ---------------
   430      0.270325  27 S  s               107      0.225533   7 N  px        
    84      0.221481   6 O  pz              343     -0.211868  21 C  s         
   252      0.203938  16 O  px              110      0.199999   7 N  px        
   300     -0.196323  18 H  s                82     -0.191046   6 O  px        
   309      0.189301  19 C  s               435      0.181262  27 S  px        

 Vector   66  Occ=2.000000D+00  E=-4.270778D-01
              MO Center=  2.4D-01,  1.8D+00, -3.5D-01, r^2= 6.7D+00
   Bfn.  Coefficient  Atom+Function         Bfn.  Coefficient  Atom+Function  
  ----- ------------  ---------------      ----- ------------  ---------------
   333      0.318934  20 H  s               252      0.293886  16 O  px        
   537     -0.283035  33 O  px              255      0.226966  16 O  px        
   386     -0.222373  24 C  s               540     -0.221082  33 O  px        
   279     -0.212360  17 N  pz              282     -0.189927  17 N  pz        
   539     -0.181041  33 O  pz               84     -0.167914   6 O  pz        

 Vector   67  Occ=2.000000D+00  E=-4.046689D-01
              MO Center=  1.4D+00,  2.1D-01, -6.6D-01, r^2= 5.5D+00
   Bfn.  Coefficient  Atom+Function         Bfn.  Coefficient  Atom+Function  
  ----- ------------  ---------------      ----- ------------  ---------------
   107      0.299254   7 N  px              110      0.276736   7 N  px        
   252     -0.257160  16 O  px              253      0.234056  16 O  py        
    82     -0.211704   6 O  px              106      0.208839   7 N  s         
   255     -0.208332  16 O  px              139      0.206638   9 C  s         
   163     -0.183648  10 H  s               343      0.180293  21 C  s         

 Vector   68  Occ=2.000000D+00  E=-3.887334D-01
              MO Center=  3.5D-02,  3.0D+00,  5.4D-01, r^2= 3.3D+00
   Bfn.  Coefficient  Atom+Function         Bfn.  Coefficient  Atom+Function  
  ----- ------------  ---------------      ----- ------------  ---------------
   539      0.400246  33 O  pz              564     -0.319019  34 N  pz        
   542      0.312617  33 O  pz              567     -0.288515  34 N  pz        
   562      0.235911  34 N  px              565      0.193022  34 N  px        
   276      0.179181  17 N  s               343      0.174468  21 C  s         
   139     -0.153026   9 C  s         

 Vector   69  Occ=2.000000D+00  E=-3.838202D-01
              MO Center= -2.3D-01,  1.8D+00, -1.4D-01, r^2= 6.2D+00
   Bfn.  Coefficient  Atom+Function         Bfn.  Coefficient  Atom+Function  
  ----- ------------  ---------------      ----- ------------  ---------------
   537      0.281282  33 O  px              540      0.234795  33 O  px        
   564      0.204208  34 N  pz              538      0.196000  33 O  py        
   386      0.193295  24 C  s               279     -0.190113  17 N  pz        
   282     -0.179768  17 N  pz              277     -0.165134  17 N  px        
   300     -0.165167  18 H  s               280     -0.160593  17 N  px        

 Vector   70  Occ=2.000000D+00  E=-3.524045D-01
              MO Center= -1.9D+00, -1.2D+00,  1.7D-01, r^2= 4.2D+00
   Bfn.  Coefficient  Atom+Function         Bfn.  Coefficient  Atom+Function  
  ----- ------------  ---------------      ----- ------------  ---------------
   437      0.393037  27 S  pz              440      0.383900  27 S  pz        
   438     -0.322791  27 S  px              435     -0.300643  27 S  px        
   284     -0.205534  17 N  py              410     -0.201063  25 H  s         
   419      0.161425  26 H  s         

 Vector   71  Occ=0.000000D+00  E= 1.809681D-02
              MO Center=  4.1D-01, -4.5D+00, -6.1D-02, r^2= 2.2D+01
   Bfn.  Coefficient  Atom+Function         Bfn.  Coefficient  Atom+Function  
  ----- ------------  ---------------      ----- ------------  ---------------
   300      6.836792  18 H  s               233      2.282795  15 C  px        
   483     -2.108740  29 H  s                65      1.875133   5 C  pz        
   234     -1.830062  15 C  py              207     -1.808674  13 H  s         
   431     -1.815538  27 S  s               148     -1.631076   9 C  py        
     3     -1.601632   1 H  s               310      1.493600  19 C  s         

 Vector   72  Occ=0.000000D+00  E= 3.014770D-02
              MO Center= -1.5D+00, -3.0D+00, -3.2D-01, r^2= 3.6D+01
   Bfn.  Coefficient  Atom+Function         Bfn.  Coefficient  Atom+Function  
  ----- ------------  ---------------      ----- ------------  ---------------
   459      3.039918  28 C  s               234      2.099604  15 C  py        
   233     -1.997925  15 C  px              458      1.901832  28 C  s         
   235      1.805335  15 C  pz              431     -1.812661  27 S  s         
     3      1.782517   1 H  s               207      1.759244  13 H  s         
   149     -1.664024   9 C  pz              106      1.622175   7 N  s         

 Vector   73  Occ=0.000000D+00  E= 3.573513D-02
              MO Center=  4.2D-01, -2.6D+00,  4.2D-01, r^2= 3.5D+01
   Bfn.  Coefficient  Atom+Function         Bfn.  Coefficient  Atom+Function  
  ----- ------------  ---------------      ----- ------------  ---------------
    65      4.559509   5 C  pz              106      2.793256   7 N  s         
    46     -2.726316   4 H  s               300      2.538343  18 H  s         
    64     -1.951057   5 C  py              149      1.932676   9 C  pz        
   173     -1.913795  11 C  s                13     -1.734045   2 C  s         
   207      1.655062  13 H  s               501      1.523994  31 H  s         

 Vector   74  Occ=0.000000D+00  E= 3.871139D-02
              MO Center= -1.6D+00, -1.4D+00, -9.5D-02, r^2= 3.8D+01
   Bfn.  Coefficient  Atom+Function         Bfn.  Coefficient  Atom+Function  
  ----- ------------  ---------------      ----- ------------  ---------------
   300      6.267576  18 H  s               511      3.782206  32 C  s         
   387     -2.746125  24 C  s               483      2.723809  29 H  s         
   344     -2.442493  21 C  s               310      2.183418  19 C  s         
    13     -2.168805   2 C  s               317     -2.165199  19 C  px        
   431      2.163764  27 S  s               411     -2.115409  25 H  s         

 Vector   75  Occ=0.000000D+00  E= 4.809981D-02
              MO Center= -7.5D-01, -1.5D+00,  4.3D-01, r^2= 4.1D+01
   Bfn.  Coefficient  Atom+Function         Bfn.  Coefficient  Atom+Function  
  ----- ------------  ---------------      ----- ------------  ---------------
   106      3.336023   7 N  s               511     -3.348993  32 C  s         
    37     -2.872804   3 H  s                65      2.799938   5 C  pz        
   300      2.596826  18 H  s               318      2.511423  19 C  py        
   501     -2.404693  31 H  s               216     -2.122760  14 H  s         
   411      2.043332  25 H  s               492      2.033950  30 H  s         

 Vector   76  Occ=0.000000D+00  E= 5.075849D-02
              MO Center=  7.1D-01, -1.6D+00,  3.4D-03, r^2= 4.1D+01
   Bfn.  Coefficient  Atom+Function         Bfn.  Coefficient  Atom+Function  
  ----- ------------  ---------------      ----- ------------  ---------------
     3      3.319337   1 H  s               368     -2.398521  22 H  s         
   276      2.366989  17 N  s               233      2.166441  15 C  px        
    56     -2.062354   5 C  s               420      1.933891  26 H  s         
   207     -1.904850  13 H  s               501      1.792672  31 H  s         
   234     -1.772905  15 C  py              310      1.585405  19 C  s         

 Vector   77  Occ=0.000000D+00  E= 5.269294D-02
              MO Center= -1.2D+00, -1.4D+00,  2.2D-02, r^2= 4.1D+01
   Bfn.  Coefficient  Atom+Function         Bfn.  Coefficient  Atom+Function  
  ----- ------------  ---------------      ----- ------------  ---------------
   300      3.760386  18 H  s               459     -3.434355  28 C  s         
   411     -2.909525  25 H  s               164      2.797943  10 H  s         
   511      2.521905  32 C  s               216     -2.446685  14 H  s         
    46     -2.390021   4 H  s               492      2.380208  30 H  s         
   317     -2.178253  19 C  px               13     -1.766850   2 C  s         

 Vector   78  Occ=0.000000D+00  E= 5.789433D-02
              MO Center=  1.3D+00,  8.5D-01,  7.7D-01, r^2= 4.2D+01
   Bfn.  Coefficient  Atom+Function         Bfn.  Coefficient  Atom+Function  
  ----- ------------  ---------------      ----- ------------  ---------------
   561     -3.421837  34 N  s                46      3.369577   4 H  s         
   233     -3.189395  15 C  px               65     -3.139301   5 C  pz        
   130     -2.863287   8 H  s               198      2.844963  12 H  s         
    56      2.646540   5 C  s               594     -2.615609  36 H  s         
   235      2.222530  15 C  pz              318      2.151171  19 C  py        

 Vector   79  Occ=0.000000D+00  E= 6.122996D-02
              MO Center=  1.5D-01, -1.1D+00, -1.0D+00, r^2= 4.0D+01
   Bfn.  Coefficient  Atom+Function         Bfn.  Coefficient  Atom+Function  
  ----- ------------  ---------------      ----- ------------  ---------------
    46      3.440026   4 H  s               164      3.248323  10 H  s         
    56     -3.133638   5 C  s               115      3.065913   7 N  pz        
   420      2.801738  26 H  s               198      2.620692  12 H  s         
    37     -2.553097   3 H  s               483      2.407390  29 H  s         
   459      2.381753  28 C  s               149      2.332235   9 C  pz        

 Vector   80  Occ=0.000000D+00  E= 7.025169D-02
              MO Center= -2.4D-01,  2.8D-01,  7.2D-01, r^2= 4.7D+01
   Bfn.  Coefficient  Atom+Function         Bfn.  Coefficient  Atom+Function  
  ----- ------------  ---------------      ----- ------------  ---------------
   492     -3.907022  30 H  s               164      3.748320  10 H  s         
    46     -2.966740   4 H  s               483      2.978585  29 H  s         
   594     -2.794081  36 H  s               147     -2.738138   9 C  px        
   420     -2.539836  26 H  s               377      2.352423  23 H  s         
   561     -2.347515  34 N  s               411      2.213744  25 H  s         

 Vector   81  Occ=0.000000D+00  E= 7.256297D-02
              MO Center=  2.8D-02, -1.7D+00, -3.9D-01, r^2= 4.2D+01
   Bfn.  Coefficient  Atom+Function         Bfn.  Coefficient  Atom+Function  
  ----- ------------  ---------------      ----- ------------  ---------------
    46      4.484783   4 H  s               501      3.636195  31 H  s         
   164      3.593590  10 H  s               483     -3.573496  29 H  s         
     3     -3.240763   1 H  s               368      2.974187  22 H  s         
   377     -2.853375  23 H  s               198     -2.776564  12 H  s         
   130      2.706210   8 H  s               352      2.208794  21 C  py        

 Vector   82  Occ=0.000000D+00  E= 7.273343D-02
              MO Center=  4.5D-01, -1.5D+00, -3.7D-01, r^2= 4.3D+01
   Bfn.  Coefficient  Atom+Function         Bfn.  Coefficient  Atom+Function  
  ----- ------------  ---------------      ----- ------------  ---------------
   207      5.268271  13 H  s               149     -4.559942   9 C  pz        
    37      4.074105   3 H  s                65     -3.919639   5 C  pz        
    56      3.865913   5 C  s               216     -3.566976  14 H  s         
   420      3.445095  26 H  s                 3     -3.264938   1 H  s         
   300      3.214983  18 H  s                13      3.123422   2 C  s         

 Vector   83  Occ=0.000000D+00  E= 7.744161D-02
              MO Center= -6.4D-01, -8.4D-01,  1.1D+00, r^2= 4.0D+01
   Bfn.  Coefficient  Atom+Function         Bfn.  Coefficient  Atom+Function  
  ----- ------------  ---------------      ----- ------------  ---------------
   368      5.245408  22 H  s               411     -4.284572  25 H  s         
   459     -3.988504  28 C  s               207      3.747619  13 H  s         
   216     -3.710135  14 H  s               300     -3.566506  18 H  s         
   174      3.469826  11 C  s               318     -2.989464  19 C  py        
    37     -2.954784   3 H  s               431      2.932731  27 S  s         

 Vector   84  Occ=0.000000D+00  E= 8.052793D-02
              MO Center= -1.4D+00, -1.8D-01,  3.5D-02, r^2= 3.8D+01
   Bfn.  Coefficient  Atom+Function         Bfn.  Coefficient  Atom+Function  
  ----- ------------  ---------------      ----- ------------  ---------------
   368     -5.366946  22 H  s                46      5.276037   4 H  s         
   334     -5.002701  20 H  s               377      4.048330  23 H  s         
   351      3.931089  21 C  px               65     -3.534554   5 C  pz        
    56      3.362943   5 C  s               319     -3.110769  19 C  pz        
   353      3.052978  21 C  pz              501      3.059517  31 H  s         

 Vector   85  Occ=0.000000D+00  E= 8.774794D-02
              MO Center=  5.9D-01, -1.9D+00, -1.8D+00, r^2= 3.3D+01
   Bfn.  Coefficient  Atom+Function         Bfn.  Coefficient  Atom+Function  
  ----- ------------  ---------------      ----- ------------  ---------------
   216     -6.688679  14 H  s               198      6.474895  12 H  s         
   130      6.100382   8 H  s               233     -5.167664  15 C  px        
   174      3.968499  11 C  s               511     -3.094230  32 C  s         
   148      3.073897   9 C  py              235      2.746686  15 C  pz        
   334     -2.745403  20 H  s               234      2.500508  15 C  py        

 Vector   86  Occ=0.000000D+00  E= 9.078118D-02
              MO Center= -2.5D+00,  2.4D-01, -8.8D-01, r^2= 3.8D+01
   Bfn.  Coefficient  Atom+Function         Bfn.  Coefficient  Atom+Function  
  ----- ------------  ---------------      ----- ------------  ---------------
   511     -7.709262  32 C  s               420      7.221049  26 H  s         
   334     -5.572704  20 H  s               377     -5.297930  23 H  s         
   352      4.866884  21 C  py              483      4.847425  29 H  s         
    56     -4.423814   5 C  s               459      4.305380  28 C  s         
   492     -4.137933  30 H  s               317      3.906693  19 C  px        

 Vector   87  Occ=0.000000D+00  E= 9.957342D-02
              MO Center= -1.7D+00,  5.6D-01, -2.9D-01, r^2= 3.9D+01
   Bfn.  Coefficient  Atom+Function         Bfn.  Coefficient  Atom+Function  
  ----- ------------  ---------------      ----- ------------  ---------------
   334      7.736525  20 H  s               411      7.396136  25 H  s         
   377     -6.957127  23 H  s               420     -6.806575  26 H  s         
    56      5.916535   5 C  s               300     -5.126806  18 H  s         
   319      5.117533  19 C  pz              511      4.743557  32 C  s         
   344     -4.333382  21 C  s               318     -3.820927  19 C  py        

 Vector   88  Occ=0.000000D+00  E= 1.065076D-01
              MO Center=  2.1D-01, -6.5D-01,  7.1D-01, r^2= 3.5D+01
   Bfn.  Coefficient  Atom+Function         Bfn.  Coefficient  Atom+Function  
  ----- ------------  ---------------      ----- ------------  ---------------
   300     10.586490  18 H  s               431     -8.524384  27 S  s         
   585     -7.143633  35 H  s               387      4.355622  24 C  s         
   276     -4.299955  17 N  s               174      3.821354  11 C  s         
    46     -3.418030   4 H  s               344      3.243452  21 C  s         
   442     -3.191323  27 S  py              216     -3.146797  14 H  s         

 Vector   89  Occ=0.000000D+00  E= 1.088979D-01
              MO Center=  9.3D-01, -6.9D-02,  4.1D-01, r^2= 3.8D+01
   Bfn.  Coefficient  Atom+Function         Bfn.  Coefficient  Atom+Function  
  ----- ------------  ---------------      ----- ------------  ---------------
   585      7.942257  35 H  s               420     -6.519007  26 H  s         
    56     -5.910816   5 C  s               300      5.419904  18 H  s         
   164     -5.388166  10 H  s                65      5.358788   5 C  pz        
   501      4.755637  31 H  s               334      4.299756  20 H  s         
    13     -4.208302   2 C  s               411      4.009703  25 H  s         

 Vector   90  Occ=0.000000D+00  E= 1.184222D-01
              MO Center=  4.1D-01, -6.6D-02,  1.1D+00, r^2= 2.9D+01
   Bfn.  Coefficient  Atom+Function         Bfn.  Coefficient  Atom+Function  
  ----- ------------  ---------------      ----- ------------  ---------------
   300     23.684825  18 H  s               511     -7.152266  32 C  s         
   431      5.792506  27 S  s               387     -5.454145  24 C  s         
   459     -4.933799  28 C  s               585     -4.888726  35 H  s         
   441     -4.618310  27 S  px              106     -4.457698   7 N  s         
   318      4.217839  19 C  py              233      3.895462  15 C  px        

 Vector   91  Occ=0.000000D+00  E= 1.250349D-01
[...]
   235     10.029753  15 C  pz              561    -10.040656  34 N  s         
   233     -6.595716  15 C  px              300     -6.208358  18 H  s         
    13     -6.162893   2 C  s               276     -6.017745  17 N  s         
   318     -5.869270  19 C  py              147      5.609103   9 C  px        

 Vector  176  Occ=0.000000D+00  E= 4.412070D-01
              MO Center=  2.8D-01, -8.2D-01, -4.2D-01, r^2= 2.2D+01
   Bfn.  Coefficient  Atom+Function         Bfn.  Coefficient  Atom+Function  
  ----- ------------  ---------------      ----- ------------  ---------------
   344      8.587498  21 C  s               387      8.481019  24 C  s         
    12      8.176379   2 C  s               300     -7.770016  18 H  s         
   234     -7.379655  15 C  py              106     -6.947660   7 N  s         
   226     -6.136090  15 C  s               115      5.899622   7 N  pz        
   197      5.573570  12 H  s               319     -5.507653  19 C  pz        

 Vector  177  Occ=0.000000D+00  E= 4.450685D-01
              MO Center= -1.4D+00,  2.9D-01,  7.3D-01, r^2= 2.1D+01
   Bfn.  Coefficient  Atom+Function         Bfn.  Coefficient  Atom+Function  
  ----- ------------  ---------------      ----- ------------  ---------------
   233     11.888395  15 C  px              344     10.201748  21 C  s         
   234     -9.700618  15 C  py              386      9.054290  24 C  s         
    56     -8.735185   5 C  s               317      8.439192  19 C  px        
   343     -8.368352  21 C  s               319     -8.242859  19 C  pz        
   310      6.865584  19 C  s               318     -6.276545  19 C  py        

 Vector  178  Occ=0.000000D+00  E= 4.501825D-01
              MO Center=  7.0D-01, -1.3D+00,  1.1D+00, r^2= 2.0D+01
   Bfn.  Coefficient  Atom+Function         Bfn.  Coefficient  Atom+Function  
  ----- ------------  ---------------      ----- ------------  ---------------
   106      7.908345   7 N  s               276     -7.728439  17 N  s         
   283     -7.421994  17 N  px               56     -6.499557   5 C  s         
   114      6.055530   7 N  py              284      6.078411  17 N  py        
   226     -6.021825  15 C  s               174      5.863218  11 C  s         
    45      5.327518   4 H  s               317      5.111315  19 C  px        

 Vector  179  Occ=0.000000D+00  E= 4.520551D-01
              MO Center= -8.5D-01, -4.6D-01, -1.4D-01, r^2= 2.3D+01
   Bfn.  Coefficient  Atom+Function         Bfn.  Coefficient  Atom+Function  
  ----- ------------  ---------------      ----- ------------  ---------------
   561    -16.358662  34 N  s               511     15.268130  32 C  s         
   174    -11.865629  11 C  s                56      8.848582   5 C  s         
   115     -7.239579   7 N  pz               65     -7.056893   5 C  pz        
   149     -6.607465   9 C  pz               12     -6.456622   2 C  s         
   500     -5.780025  31 H  s               518      5.267924  32 C  px        

 Vector  180  Occ=0.000000D+00  E= 4.551038D-01
              MO Center= -5.2D-01, -2.3D-01, -3.5D-01, r^2= 1.9D+01
   Bfn.  Coefficient  Atom+Function         Bfn.  Coefficient  Atom+Function  
  ----- ------------  ---------------      ----- ------------  ---------------
   511     19.703512  32 C  s               300    -10.713268  18 H  s         
   561     -9.843486  34 N  s               317     -7.971149  19 C  px        
   344     -7.246088  21 C  s                13     -6.064631   2 C  s         
   226      5.495602  15 C  s               285      5.299257  17 N  pz        
   284     -5.173663  17 N  py              174      4.846121  11 C  s         

 Vector  181  Occ=0.000000D+00  E= 4.568465D-01
              MO Center=  1.6D-02, -1.3D-01, -1.4D-01, r^2= 2.2D+01
   Bfn.  Coefficient  Atom+Function         Bfn.  Coefficient  Atom+Function  
  ----- ------------  ---------------      ----- ------------  ---------------
   233     15.281902  15 C  px               56    -13.153896   5 C  s         
   387     12.653342  24 C  s               300     11.756239  18 H  s         
   149      9.931509   9 C  pz              317      9.493512  19 C  px        
   148     -7.915949   9 C  py              319     -7.360408  19 C  pz        
   106     -7.003095   7 N  s               561      6.266388  34 N  s         

 Vector  182  Occ=0.000000D+00  E= 4.606528D-01
              MO Center= -4.3D-01,  3.0D-01, -5.0D-02, r^2= 2.2D+01
   Bfn.  Coefficient  Atom+Function         Bfn.  Coefficient  Atom+Function  
  ----- ------------  ---------------      ----- ------------  ---------------
   276     13.321470  17 N  s               511    -13.213697  32 C  s         
   387     12.947582  24 C  s               174    -11.544316  11 C  s         
    13     11.232135   2 C  s               344     10.111366  21 C  s         
   317      9.941620  19 C  px              226     -9.377631  15 C  s         
   284      7.828660  17 N  py              234     -7.784559  15 C  py        

 Vector  183  Occ=0.000000D+00  E= 4.654752D-01
              MO Center= -7.1D-01, -6.7D-01, -4.4D-01, r^2= 1.9D+01
   Bfn.  Coefficient  Atom+Function         Bfn.  Coefficient  Atom+Function  
  ----- ------------  ---------------      ----- ------------  ---------------
   233      9.581059  15 C  px              174     -7.434610  11 C  s         
   234     -6.986179  15 C  py              276      5.937055  17 N  s         
   333     -5.390537  20 H  s               310      4.947634  19 C  s         
   235     -4.870364  15 C  pz               13     -4.648517   2 C  s         
   173     -4.626541  11 C  s               300      4.217964  18 H  s         

 Vector  184  Occ=0.000000D+00  E= 4.689490D-01
              MO Center= -2.1D-01, -9.9D-01, -2.3D-01, r^2= 2.2D+01
   Bfn.  Coefficient  Atom+Function         Bfn.  Coefficient  Atom+Function  
  ----- ------------  ---------------      ----- ------------  ---------------
   300      9.344820  18 H  s               459     -7.464663  28 C  s         
   234     -5.951741  15 C  py              276      5.741202  17 N  s         
   458     -5.399390  28 C  s               482      5.199573  29 H  s         
   441     -5.015189  27 S  px              174     -4.895919  11 C  s         
   215     -4.585648  14 H  s               233      4.436023  15 C  px        

 Vector  185  Occ=0.000000D+00  E= 4.716219D-01
              MO Center= -6.7D-02,  1.3D-01, -2.5D-01, r^2= 2.0D+01
   Bfn.  Coefficient  Atom+Function         Bfn.  Coefficient  Atom+Function  
  ----- ------------  ---------------      ----- ------------  ---------------
   459     11.411058  28 C  s               300    -11.080017  18 H  s         
   276     10.168716  17 N  s               561      8.981499  34 N  s         
   511     -7.412973  32 C  s               115      7.277765   7 N  pz        
    56     -7.188888   5 C  s               387      6.004132  24 C  s         
   343      5.379931  21 C  s               431     -5.101488  27 S  s         

 Vector  186  Occ=0.000000D+00  E= 4.751278D-01
              MO Center= -7.3D-01, -1.9D-01, -2.7D-01, r^2= 2.1D+01
   Bfn.  Coefficient  Atom+Function         Bfn.  Coefficient  Atom+Function  
  ----- ------------  ---------------      ----- ------------  ---------------
   300     15.120608  18 H  s               233     11.959825  15 C  px        
    56     -9.725433   5 C  s                12     -8.677197   2 C  s         
   234     -8.652350  15 C  py              419      7.048030  26 H  s         
   276      6.441889  17 N  s                36      6.327796   3 H  s         
   310      6.068592  19 C  s                13     -5.969468   2 C  s         

 Vector  187  Occ=0.000000D+00  E= 4.784613D-01
              MO Center= -2.7D-02, -9.5D-01,  9.7D-02, r^2= 2.0D+01
   Bfn.  Coefficient  Atom+Function         Bfn.  Coefficient  Atom+Function  
  ----- ------------  ---------------      ----- ------------  ---------------
   300     22.304056  18 H  s                13    -17.222603   2 C  s         
   511     13.331801  32 C  s               233     11.001602  15 C  px        
   318    -10.441306  19 C  py              174    -10.306647  11 C  s         
   115      8.989409   7 N  pz              344     -8.865179  21 C  s         
   148     -8.690831   9 C  py              173     -8.492650  11 C  s         

 Vector  188  Occ=0.000000D+00  E= 4.806983D-01
              MO Center= -1.2D-01, -8.1D-01, -9.2D-01, r^2= 1.9D+01
   Bfn.  Coefficient  Atom+Function         Bfn.  Coefficient  Atom+Function  
  ----- ------------  ---------------      ----- ------------  ---------------
   300     15.761483  18 H  s               459    -12.406621  28 C  s         
   511    -12.368780  32 C  s               174    -11.052650  11 C  s         
   149     -9.798712   9 C  pz              318      9.289318  19 C  py        
   233     -8.779102  15 C  px              115     -7.454827   7 N  pz        
   234      7.280170  15 C  py              284     -6.299074  17 N  py        

 Vector  189  Occ=0.000000D+00  E= 4.847901D-01
              MO Center=  4.7D-01, -8.3D-01,  3.1D-01, r^2= 2.1D+01
   Bfn.  Coefficient  Atom+Function         Bfn.  Coefficient  Atom+Function  
  ----- ------------  ---------------      ----- ------------  ---------------
   511     23.014395  32 C  s               300    -20.456114  18 H  s         
   276    -10.745268  17 N  s               459      9.338974  28 C  s         
   561     -9.044435  34 N  s                56      8.814758   5 C  s         
   318     -8.580057  19 C  py              174      8.454115  11 C  s         
   387     -7.588529  24 C  s               344     -6.646954  21 C  s         

 Vector  190  Occ=0.000000D+00  E= 4.905194D-01
              MO Center= -3.3D-01, -7.0D-01,  1.7D-01, r^2= 2.0D+01
   Bfn.  Coefficient  Atom+Function         Bfn.  Coefficient  Atom+Function  
  ----- ------------  ---------------      ----- ------------  ---------------
   511     20.025031  32 C  s               300    -11.287475  18 H  s         
   561    -11.198780  34 N  s               276    -10.799742  17 N  s         
   387     10.737841  24 C  s               431     -8.753481  27 S  s         
    12     -7.672169   2 C  s               459      7.022117  28 C  s         
   458      6.785168  28 C  s               174      5.699777  11 C  s         

 Vector  191  Occ=0.000000D+00  E= 4.924374D-01
              MO Center= -1.2D+00, -4.6D-01, -2.2D-01, r^2= 2.0D+01
   Bfn.  Coefficient  Atom+Function         Bfn.  Coefficient  Atom+Function  
  ----- ------------  ---------------      ----- ------------  ---------------
   387      8.748518  24 C  s               511      7.984751  32 C  s         
   233      6.348615  15 C  px              148     -5.990491   9 C  py        
   318     -5.944625  19 C  py              482      5.830970  29 H  s         
   276     -5.749771  17 N  s               353     -5.774197  21 C  pz        
   394      5.689921  24 C  px              317      5.323284  19 C  px        

 Vector  192  Occ=0.000000D+00  E= 5.052581D-01
              MO Center=  2.6D-01, -3.7D-01, -5.7D-01, r^2= 1.8D+01
   Bfn.  Coefficient  Atom+Function         Bfn.  Coefficient  Atom+Function  
  ----- ------------  ---------------      ----- ------------  ---------------
   387     14.550895  24 C  s               283      9.059086  17 N  px        
   317      8.409905  19 C  px              343      6.774105  21 C  s         
   344      6.418194  21 C  s               149     -6.243153   9 C  pz        
   233     -6.065605  15 C  px              459      5.287099  28 C  s         
   310     -5.084914  19 C  s               376     -5.057010  23 H  s         


 center of mass
 --------------
 x =   0.03426820 y =   0.10386557 z =   0.00648689

 moments of inertia (a.u.)
 ------------------
        4814.822978475619          -0.000000000001           0.000000000001
          -0.000000000001        4651.817053408742           0.000000000001
           0.000000000001           0.000000000001        6673.596040796735

  Mulliken analysis of the total density
  --------------------------------------

    Atom       Charge   Shell Charges
 -----------   ------   -------------------------------------------------------
    1 H    1     0.81   0.77  0.08  0.01  0.03 -0.07
    2 C    6     6.35   2.01  0.66  0.30  0.16  2.07  1.00 -0.02  0.06  0.11
    3 H    1     0.94   0.76  0.20  0.01  0.03 -0.07
    4 H    1     0.86   0.76  0.13  0.01  0.03 -0.07
    5 C    6     5.23   2.01  0.68  0.12  0.00  1.90  0.37 -0.07  0.24 -0.01
    6 O    8     8.83   2.01  0.82  1.00  0.19  2.80  1.85  0.16  0.01 -0.01
    7 N    7     7.44   2.01  0.72  0.80 -0.16  2.45  1.44  0.09  0.05  0.04
    8 H    1     0.94   0.77  0.19 -0.04  0.05 -0.04
    9 C    6     6.32   2.01  0.66  0.11 -0.01  1.99  1.31 -0.04  0.14  0.15
   10 H    1     1.15   0.78  0.30  0.01  0.03  0.03
   11 C    6     5.88   2.01  0.66  0.30  0.23  2.04  0.60 -0.04  0.07  0.01
   12 H    1     0.92   0.76  0.21 -0.01  0.03 -0.08
   13 H    1     0.95   0.77  0.22  0.01  0.03 -0.09
   14 H    1     0.94   0.77  0.18  0.04  0.03 -0.08
   15 C    6     4.74   2.01  0.68  0.05 -0.04  1.89  0.14  0.07  0.24 -0.29
   16 O    8     8.88   2.01  0.82  1.05  0.22  2.79  1.85  0.14  0.01 -0.00
   17 N    7     7.31   2.01  0.72  0.82 -0.10  2.46  1.43 -0.10  0.06  0.02
   18 H    1     0.90   0.76  0.23 -0.01  0.06 -0.14
   19 C    6     6.30   2.01  0.67  0.18 -0.01  1.99  1.12  0.09  0.14  0.12
   20 H    1     1.06   0.78  0.24 -0.01  0.03  0.02
   21 C    6     6.03   2.01  0.66  0.44 -0.12  2.03  0.75  0.03  0.09  0.14
   22 H    1     1.00   0.78  0.29 -0.03  0.03 -0.07
   23 H    1     1.01   0.77  0.30 -0.00  0.03 -0.09
   24 C    6     6.00   2.01  0.66  0.34 -0.11  1.99  0.88  0.16  0.10 -0.03
   25 H    1     1.11   0.78  0.37 -0.02  0.03 -0.04
   26 H    1     1.00   0.78  0.24 -0.02  0.03 -0.02
   27 S   16    15.35   2.00  2.03  0.85  0.69  0.09  6.00  2.32  1.36  0.06  0.13 -0.19
   28 C    6     6.17   2.01  0.65  0.48  0.01  2.00  0.99 -0.03  0.07 -0.00
   29 H    1     1.18   0.76  0.44  0.00  0.03 -0.04
   30 H    1     1.02   0.76  0.22  0.02  0.03 -0.01
   31 H    1     1.01   0.76  0.21  0.03  0.03 -0.02
   32 C    6     4.46   2.01  0.68  0.07 -0.06  1.89 -0.22 -0.02  0.24 -0.13
   33 O    8     8.85   2.01  0.82  1.03  0.20  2.79  1.84  0.15  0.01 -0.01
   34 N    7     7.15   2.01  0.72  0.80 -0.20  2.46  1.23  0.12  0.04 -0.02
   35 H    1     0.90   0.73  0.25 -0.01  0.06 -0.13
   36 H    1     1.02   0.76  0.24 -0.01  0.05 -0.03

       Multipole analysis of the density wrt the origin
       ------------------------------------------------

     L   x y z        total         open         nuclear
     -   - - -        -----         ----         -------
     0   0 0 0      0.000000      0.000000    140.000000

     1   1 0 0     -0.436222      0.000000     -0.000000
     1   0 1 0     -3.854942      0.000000      0.000000
     1   0 0 1      0.287473      0.000000      0.000000

     2   2 0 0    -75.178294      0.000000   1825.709872
     2   1 1 0     -0.224568      0.000000     -1.886602
     2   1 0 1      3.736968      0.000000      9.552224
     2   0 2 0    -90.917611      0.000000   1870.346431
     2   0 1 1      4.366444      0.000000     15.513211
     2   0 0 2    -85.781858      0.000000    798.556835


 Task  times  cpu:     4654.8s     wall:     4866.1s


                                NWChem Input Module
                                -------------------


 Summary of allocated global arrays
-----------------------------------
  No active global arrays


MA_summarize_allocated_blocks: starting scan ...
MA_summarize_allocated_blocks: scan completed: 0 heap blocks, 0 stack blocks
MA usage statistics:

	allocation statistics:
					      heap	     stack
					      ----	     -----
	current number of blocks	         0	         0
	maximum number of blocks	        16	        14
	current total bytes		         0	         0
	maximum total bytes		    138128	  33951720
	maximum total K-bytes		       139	     33952
	maximum total M-bytes		         1	        34


                                     CITATION
                                     --------
                Please cite the following reference when publishing
                           results obtained with NWChem:

          E. Apra, E. J. Bylaska, W. A. de Jong, N. Govind, K. Kowalski,
       T. P. Straatsma, M. Valiev, H. J. J. van Dam, Y. Alexeev, J. Anchell,
       V. Anisimov, F. W. Aquino, R. Atta-Fynn, J. Autschbach, N. P. Bauman,
     J. C. Becca, D. E. Bernholdt, K. Bhaskaran-Nair, S. Bogatko, P. Borowski,
         J. Boschen, J. Brabec, A. Bruner, E. Cauet, Y. Chen, G. N. Chuev,
      C. J. Cramer, J. Daily, M. J. O. Deegan, T. H. Dunning Jr., M. Dupuis,
   K. G. Dyall, G. I. Fann, S. A. Fischer, A. Fonari, H. Fruchtl, L. Gagliardi,
      J. Garza, N. Gawande, S. Ghosh, K. Glaesemann, A. W. Gotz, J. Hammond,
       V. Helms, E. D. Hermes, K. Hirao, S. Hirata, M. Jacquelin, L. Jensen,
   B. G. Johnson, H. Jonsson, R. A. Kendall, M. Klemm, R. Kobayashi, V. Konkov,
      S. Krishnamoorthy, M. Krishnan, Z. Lin, R. D. Lins, R. J. Littlefield,
      A. J. Logsdail, K. Lopata, W. Ma, A. V. Marenich, J. Martin del Campo,
   D. Mejia-Rodriguez, J. E. Moore, J. M. Mullin, T. Nakajima, D. R. Nascimento,
    J. A. Nichols, P. J. Nichols, J. Nieplocha, A. Otero-de-la-Roza, B. Palmer,
    A. Panyala, T. Pirojsirikul, B. Peng, R. Peverati, J. Pittner, L. Pollack,
   R. M. Richard, P. Sadayappan, G. C. Schatz, W. A. Shelton, D. W. Silverstein,
   D. M. A. Smith, T. A. Soares, D. Song, M. Swart, H. L. Taylor, G. S. Thomas,
            V. Tipparaju, D. G. Truhlar, K. Tsemekhman, T. Van Voorhis,
      A. Vazquez-Mayagoitia, P. Verma, O. Villa, A. Vishnu, K. D. Vogiatzis,
        D. Wang, J. H. Weare, M. J. Williamson, T. L. Windus, K. Wolinski,
        A. T. Wong, Q. Wu, C. Yang, Q. Yu, M. Zacharias, Z. Zhang, Y. Zhao,
                                and R. J. Harrison
                        "NWChem: Past, present, and future
                         J. Chem. Phys. 152, 184102 (2020)
                               doi:10.1063/5.0004997

                                      AUTHORS
                                      -------
  E. Apra, E. J. Bylaska, N. Govind, K. Kowalski, M. Valiev, D. Mejia-Rodriguez,
       A. Kunitsa, N. P. Bauman, A. Panyala, W. A. de Jong, T. P. Straatsma,
   H. J. J. van Dam, D. Wang, T. L. Windus, J. Hammond, J. Autschbach, A. Woods,
    K. Bhaskaran-Nair, J. Brabec, K. Lopata, S. A. Fischer, S. Krishnamoorthy,
     M. Jacquelin, W. Ma, M. Klemm, O. Villa, Y. Chen, V. Anisimov, F. Aquino,
     S. Hirata, M. T. Hackler, E. Hermes, L. Jensen, J. E. Moore, J. C. Becca,
      V. Konjkov, T. Risthaus, M. Malagoli, A. Marenich, A. Otero-de-la-Roza,
        J. Mullin, P. Nichols, R. Peverati, J. Pittner, Y. Zhao, P.-D. Fan,
        A. Fonari, M. J. Williamson, R. J. Harrison, J. R. Rehr, M. Dupuis,
     D. Silverstein, D. M. A. Smith, J. Nieplocha, V. Tipparaju, M. Krishnan,
     B. E. Van Kuiken, A. Vazquez-Mayagoitia, M. Swart, Q. Wu, T. Van Voorhis,
     A. A. Auer, M. Nooijen, L. D. Crosby, E. Brown, G. Cisneros, G. I. Fann,
   H. Fruchtl, J. Garza, K. Hirao, R. A. Kendall, J. A. Nichols, K. Tsemekhman,
    K. Wolinski, J. Anchell, D. E. Bernholdt, P. Borowski, T. Clark, D. Clerc,
   H. Dachsel, M. J. O. Deegan, K. Dyall, D. Elwood, E. Glendening, M. Gutowski,
   A. C. Hess, J. Jaffe, B. G. Johnson, J. Ju, R. Kobayashi, R. Kutteh, Z. Lin,
   R. Littlefield, X. Long, B. Meng, T. Nakajima, S. Niu, L. Pollack, M. Rosing,
   K. Glaesemann, G. Sandrone, M. Stave, H. Taylor, G. Thomas, J. H. van Lenthe,
                               A. T. Wong, Z. Zhang.

 Total times  cpu:     4654.9s     wall:     4866.6s
