export TMOUT=5400
export TMPDIR=/tmp
export PTMPDIR=/tmp/ptmp
 argument  1 = ALA_VAL_2.nw
                                         
                                         


             Northwest Computational Chemistry Package (NWChem) 7.2.0
             --------------------------------------------------------


                    Environmental Molecular Sciences Laboratory
                       Pacific Northwest National Laboratory
                                Richland, WA 99352

                              Copyright (c) 1994-2022
                       Pacific Northwest National Laboratory
                            Battelle Memorial Institute

             NWChem is an open-source computational chemistry package
                        distributed under the terms of the
                      Educational Community License (ECL) 2.0
             A copy of the license is included with this distribution
                              in the LICENSE.TXT file

                                  ACKNOWLEDGMENT
                                  --------------

            This software and its documentation were developed at the
            EMSL at Pacific Northwest National Laboratory, a multiprogram
            national laboratory, operated for the U.S. Department of Energy
            by Battelle under Contract Number DE-AC05-76RL01830. Support
            for this work was provided by the Department of Energy Office
            of Biological and Environmental Research, Office of Basic
            Energy Sciences, and the Office of Advanced Scientific Computing.


           Job information
           ---------------

    hostname        = nova18-wide-42
    program         = /opt/rit/el9/20230413/app/linux-rhel9-x86_64_v3/gcc-11.2.1/nwchem-7.2.0-oxtctbuhfuzyfaoziquq6bki22grib3g/bin/nwchem
    date            = Tue Jul  1 09:11:43 2025

    compiled        = Wed_May_17_23:46:39_2023
    source          = /tmp/root/spack-stage/spack-stage-nwchem-7.2.0-oxtctbuhfuzyfaoziquq6bki22grib3g/spack-src
    nwchem branch   = 7.2.0
    nwchem revision = d0d141fd
    ga revision     = 5.8.0
    use scalapack   = T
    input           = ALA_VAL_2.nw
    prefix          = ALA_VAL_2.
    data base       = ./ALA_VAL_2.db
    status          = startup
    nproc           =        1
    time left       =     -1s



           Memory information
           ------------------

    heap     =   26214396 doubles =    200.0 Mbytes
    stack    =   26214401 doubles =    200.0 Mbytes
    global   =   52428800 doubles =    400.0 Mbytes (distinct from heap & stack)
    total    =  104857597 doubles =    800.0 Mbytes
    verify   = yes
    hardfail = no 


           Directory information
           ---------------------

  0 permanent = .
  0 scratch   = .




                                NWChem Input Module
                                -------------------



 Scaling coordinates for geometry "geometry" by  1.889725989
 (inverse scale =  0.529177249)

 C1  symmetry detected

          ------
          auto-z
          ------
  no constraints, skipping    0.0000000000000000     
  no constraints, skipping    0.0000000000000000     


                             Geometry "geometry" -> ""
                             -------------------------

 Output coordinates in angstroms (scale by  1.889725989 to convert to a.u.)

  No.       Tag          Charge          X              Y              Z
 ---- ---------------- ---------- -------------- -------------- --------------
    1 H                    1.0000    -2.83304859    -2.71891490    -1.07860776
    2 C                    6.0000    -2.61701851    -2.96167460    -0.04076349
    3 H                    1.0000    -2.54754151    -4.04160478     0.08204430
    4 H                    1.0000    -3.41321225    -2.57752562     0.59693400
    5 C                    6.0000    -1.31059152    -2.32688453     0.36971805
    6 O                    8.0000    -1.28147910    -1.51147218     1.28268747
    7 N                    7.0000    -0.23075274    -2.66837614    -0.33261570
    8 H                    1.0000    -0.34845966    -3.33571173    -1.07736418
    9 C                    6.0000     1.14589758    -2.26319381    -0.00932919
   10 H                    1.0000     1.35124011    -2.57118460     1.01712739
   11 C                    6.0000     2.08909651    -3.04627626    -0.93358655
   12 H                    1.0000     1.91676874    -4.11785091    -0.82436703
   13 H                    1.0000     1.92693838    -2.75295357    -1.97187337
   14 H                    1.0000     3.12477959    -2.83147901    -0.66455735
   15 C                    6.0000     1.43735805    -0.74192766    -0.06507949
   16 O                    8.0000     2.54792001    -0.32408598     0.24328307
   17 N                    7.0000     0.45632929     0.08694610    -0.44149930
   18 H                    1.0000    -0.44109376    -0.32839425    -0.63307767
   19 C                    6.0000     0.51576323     1.55807405    -0.34327931
   20 H                    1.0000     1.51073373     1.87721084    -0.65620007
   21 C                    6.0000    -0.50536871     2.17366317    -1.32470358
   22 H                    1.0000    -0.35589668     1.69528400    -2.29393342
   23 C                    6.0000    -1.96351317     1.92974400    -0.90977203
   24 H                    1.0000    -2.18504913     2.44970085     0.02345660
   25 H                    1.0000    -2.63131910     2.30609088    -1.68431981
   26 H                    1.0000    -2.15030529     0.86428081    -0.77842940
   27 C                    6.0000    -0.30176373     3.67728545    -1.53879246
   28 H                    1.0000    -0.53769381     4.23070595    -0.62910089
   29 H                    1.0000     0.73382397     3.87339757    -1.81413433
   30 H                    1.0000    -0.95102706     4.02629014    -2.34175813
   31 C                    6.0000     0.32778836     2.06743914     1.09937888
   32 O                    8.0000     0.65699047     3.20384241     1.41057426
   33 N                    7.0000    -0.18586933     1.25303132     2.01532084
   34 H                    1.0000    -0.46198017     0.31205368     1.76838380
   35 H                    1.0000    -0.27894771     1.59562805     2.95623311

      Atomic Mass 
      ----------- 

      H                  1.007825
      C                 12.000000
      O                 15.994910
      N                 14.003070


 Effective nuclear repulsion energy (a.u.)    1221.0222013662

            Nuclear Dipole moment (a.u.) 
            ----------------------------
        X                 Y               Z
 ---------------- ---------------- ----------------
    -0.0000000000    -0.0000000000    -0.0000000000



                                Z-matrix (autoz)
                                -------- 

 Units are Angstrom for bonds and degrees for angles

      Type          Name      I     J     K     L     M      Value
      ----------- --------  ----- ----- ----- ----- ----- ----------
    1 Stretch                  1     2                       1.08753
    2 Stretch                  2     3                       1.08911
    3 Stretch                  2     4                       1.09002
    4 Stretch                  2     5                       1.50937
    5 Stretch                  5     6                       1.22444
    6 Stretch                  5     7                       1.33264
    7 Stretch                  7     8                       1.00690
    8 Stretch                  7     9                       1.47100
    9 Stretch                  9    10                       1.09116
   10 Stretch                  9    11                       1.53528
   11 Stretch                  9    15                       1.54994
   12 Stretch                 11    12                       1.09082
   13 Stretch                 11    13                       1.09104
   14 Stretch                 11    14                       1.09140
   15 Stretch                 15    16                       1.22598
   16 Stretch                 15    17                       1.33834
   17 Stretch                 17    18                       1.00726
   18 Stretch                 17    19                       1.47560
   19 Stretch                 19    20                       1.09075
   20 Stretch                 19    21                       1.54430
   21 Stretch                 19    31                       1.54144
   22 Stretch                 21    22                       1.09114
   23 Stretch                 21    23                       1.53553
   24 Stretch                 21    27                       1.53237
   25 Stretch                 23    24                       1.09103
   26 Stretch                 23    25                       1.08974
   27 Stretch                 23    26                       1.08966
   28 Stretch                 27    28                       1.09063
   29 Stretch                 27    29                       1.08936
   30 Stretch                 27    30                       1.09000
   31 Stretch                 31    32                       1.22337
   32 Stretch                 31    33                       1.32893
   33 Stretch                 33    34                       1.01126
   34 Stretch                 33    35                       1.00566
   35 Bend                     1     2     3               109.97561
   36 Bend                     1     2     4               109.54445
   37 Bend                     1     2     5               109.72982
   38 Bend                     2     5     6               120.22710
   39 Bend                     2     5     7               116.75978
   40 Bend                     3     2     4               109.27367
   41 Bend                     3     2     5               109.33801
   42 Bend                     4     2     5               108.95986
   43 Bend                     5     7     8               117.70508
   44 Bend                     5     7     9               124.88386
   45 Bend                     6     5     7               122.97977
   46 Bend                     7     9    10               107.76472
   47 Bend                     7     9    11               107.58641
   48 Bend                     7     9    15               116.00378
   49 Bend                     8     7     9               117.03357
   50 Bend                     9    11    12               110.10400
   51 Bend                     9    11    13               110.14921
   52 Bend                     9    11    14               109.52429
   53 Bend                     9    15    16               119.72343
   54 Bend                     9    15    17               118.69518
   55 Bend                    10     9    11               107.86232
   56 Bend                    10     9    15               105.99099
   57 Bend                    11     9    15               111.31173
   58 Bend                    12    11    13               109.62766
   59 Bend                    12    11    14               108.57643
   60 Bend                    13    11    14               108.82678
   61 Bend                    15    17    18               116.82092
   62 Bend                    15    17    19               124.69507
   63 Bend                    16    15    17               121.57899
   64 Bend                    17    19    20               108.01965
   65 Bend                    17    19    21               109.17644
   66 Bend                    17    19    31               112.75741
   67 Bend                    18    17    19               117.36397
   68 Bend                    19    21    22               107.40752
   69 Bend                    19    21    23               113.13220
   70 Bend                    19    21    27               113.08357
   71 Bend                    19    31    32               120.81148
   72 Bend                    19    31    33               119.32019
   73 Bend                    20    19    21               107.71090
   74 Bend                    20    19    31               106.44267
   75 Bend                    21    19    31               112.48424
   76 Bend                    21    23    24               110.38043
   77 Bend                    21    23    25               109.57297
   78 Bend                    21    23    26               110.52879
   79 Bend                    21    27    28               110.64861
   80 Bend                    21    27    29               109.77145
   81 Bend                    21    27    30               109.75240
   82 Bend                    22    21    23               107.48575
   83 Bend                    22    21    27               106.73180
   84 Bend                    23    21    27               108.65055
   85 Bend                    24    23    25               108.59901
   86 Bend                    24    23    26               109.15243
   87 Bend                    25    23    26               108.56075
   88 Bend                    28    27    29               108.97267
   89 Bend                    28    27    30               108.85185
   90 Bend                    29    27    30               108.80888
   91 Bend                    31    33    34               120.49536
   92 Bend                    31    33    35               118.15510
   93 Bend                    32    31    33               119.86462
   94 Bend                    34    33    35               121.34469
   95 Torsion                  1     2     5     6         119.27206
   96 Torsion                  1     2     5     7         -58.68928
   97 Torsion                  2     5     7     8          -1.05116
   98 Torsion                  2     5     7     9        -173.76852
   99 Torsion                  3     2     5     6        -120.03172
  100 Torsion                  3     2     5     7          62.00695
  101 Torsion                  4     2     5     6          -0.66170
  102 Torsion                  4     2     5     7        -178.62303
  103 Torsion                  5     7     9    10          55.23491
  104 Torsion                  5     7     9    11         171.30238
  105 Torsion                  5     7     9    15         -63.32989
  106 Torsion                  6     5     7     8        -178.95129
  107 Torsion                  6     5     7     9           8.33135
  108 Torsion                  7     9    11    12         -56.02296
  109 Torsion                  7     9    11    13          64.99611
  110 Torsion                  7     9    11    14        -175.34560
  111 Torsion                  7     9    15    16         177.12186
  112 Torsion                  7     9    15    17          -2.32314
  113 Torsion                  8     7     9    10        -117.52674
  114 Torsion                  8     7     9    11          -1.45927
  115 Torsion                  8     7     9    15         123.90846
  116 Torsion                  9    15    17    18           2.52111
  117 Torsion                  9    15    17    19         170.06471
  118 Torsion                 10     9    11    12          59.98031
  119 Torsion                 10     9    11    13        -179.00062
  120 Torsion                 10     9    11    14         -59.34233
  121 Torsion                 10     9    15    16          57.58812
  122 Torsion                 10     9    15    17        -121.85688
  123 Torsion                 11     9    15    16         -59.43160
  124 Torsion                 11     9    15    17         121.12340
  125 Torsion                 12    11     9    15         175.85508
  126 Torsion                 13    11     9    15         -63.12585
  127 Torsion                 14    11     9    15          56.53244
  128 Torsion                 15    17    19    20          41.80244
  129 Torsion                 15    17    19    21         158.66363
  130 Torsion                 15    17    19    31         -75.53581
  131 Torsion                 16    15    17    18        -176.91313
  132 Torsion                 16    15    17    19          -9.36954
  133 Torsion                 17    19    21    22         -49.19405
  134 Torsion                 17    19    21    23          69.25379
  135 Torsion                 17    19    21    27        -166.68399
  136 Torsion                 17    19    31    32         162.59368
  137 Torsion                 17    19    31    33         -16.70465
  138 Torsion                 18    17    19    20        -150.71549
  139 Torsion                 18    17    19    21         -33.85430
  140 Torsion                 18    17    19    31          91.94626
  141 Torsion                 19    21    23    24          65.59543
  142 Torsion                 19    21    23    25        -174.85353
  143 Torsion                 19    21    23    26         -55.25766
  144 Torsion                 19    21    27    28         -67.96037
  145 Torsion                 19    21    27    29          52.34848
  146 Torsion                 19    21    27    30         171.89329
  147 Torsion                 19    31    33    34          -0.74934
  148 Torsion                 19    31    33    35         178.46040
  149 Torsion                 20    19    21    22          67.86279
  150 Torsion                 20    19    21    23        -173.68936
  151 Torsion                 20    19    21    27         -49.62714
  152 Torsion                 20    19    31    32          44.32781
  153 Torsion                 20    19    31    33        -134.97052
  154 Torsion                 21    19    31    32         -73.41027
  155 Torsion                 21    19    31    33         107.29140
  156 Torsion                 22    21    19    31        -175.15198
  157 Torsion                 22    21    23    24        -176.00215
  158 Torsion                 22    21    23    25         -56.45110
  159 Torsion                 22    21    23    26          63.14477
  160 Torsion                 22    21    27    28         174.15428
  161 Torsion                 22    21    27    29         -65.53688
  162 Torsion                 22    21    27    30          54.00794
  163 Torsion                 23    21    19    31         -56.70413
  164 Torsion                 23    21    27    28          58.52121
  165 Torsion                 23    21    27    29         178.83006
  166 Torsion                 23    21    27    30         -61.62513
  167 Torsion                 24    23    21    27         -60.85807
  168 Torsion                 25    23    21    27          58.69297
  169 Torsion                 26    23    21    27         178.28884
  170 Torsion                 27    21    19    31          67.35809
  171 Torsion                 32    31    33    34         179.94558
  172 Torsion                 32    31    33    35          -0.84468


            XYZ format geometry
            -------------------
    35
 geometry
 H                    -2.83304859    -2.71891490    -1.07860776
 C                    -2.61701851    -2.96167460    -0.04076349
 H                    -2.54754151    -4.04160478     0.08204430
 H                    -3.41321225    -2.57752562     0.59693400
 C                    -1.31059152    -2.32688453     0.36971805
 O                    -1.28147910    -1.51147218     1.28268747
 N                    -0.23075274    -2.66837614    -0.33261570
 H                    -0.34845966    -3.33571173    -1.07736418
 C                     1.14589758    -2.26319381    -0.00932919
 H                     1.35124011    -2.57118460     1.01712739
 C                     2.08909651    -3.04627626    -0.93358655
 H                     1.91676874    -4.11785091    -0.82436703
 H                     1.92693838    -2.75295357    -1.97187337
 H                     3.12477959    -2.83147901    -0.66455735
 C                     1.43735805    -0.74192766    -0.06507949
 O                     2.54792001    -0.32408598     0.24328307
 N                     0.45632929     0.08694610    -0.44149930
 H                    -0.44109376    -0.32839425    -0.63307767
 C                     0.51576323     1.55807405    -0.34327931
 H                     1.51073373     1.87721084    -0.65620007
 C                    -0.50536871     2.17366317    -1.32470358
 H                    -0.35589668     1.69528400    -2.29393342
 C                    -1.96351317     1.92974400    -0.90977203
 H                    -2.18504913     2.44970085     0.02345660
 H                    -2.63131910     2.30609088    -1.68431981
 H                    -2.15030529     0.86428081    -0.77842940
 C                    -0.30176373     3.67728545    -1.53879246
 H                    -0.53769381     4.23070595    -0.62910089
 H                     0.73382397     3.87339757    -1.81413433
 H                    -0.95102706     4.02629014    -2.34175813
 C                     0.32778836     2.06743914     1.09937888
 O                     0.65699047     3.20384241     1.41057426
 N                    -0.18586933     1.25303132     2.01532084
 H                    -0.46198017     0.31205368     1.76838380
 H                    -0.27894771     1.59562805     2.95623311

 ==============================================================================
                                internuclear distances
 ------------------------------------------------------------------------------
       center one      |      center two      | atomic units |  angstroms
 ------------------------------------------------------------------------------
    2 C                |   1 H                |     2.05513  |     1.08753
    3 H                |   2 C                |     2.05812  |     1.08911
    4 H                |   2 C                |     2.05985  |     1.09002
    5 C                |   2 C                |     2.85230  |     1.50937
    6 O                |   5 C                |     2.31386  |     1.22444
    7 N                |   5 C                |     2.51833  |     1.33264
    8 H                |   7 N                |     1.90276  |     1.00690
    9 C                |   7 N                |     2.77979  |     1.47100
   10 H                |   9 C                |     2.06200  |     1.09116
   11 C                |   9 C                |     2.90126  |     1.53528
   12 H                |  11 C                |     2.06136  |     1.09082
   13 H                |  11 C                |     2.06177  |     1.09104
   14 H                |  11 C                |     2.06245  |     1.09140
   15 C                |   9 C                |     2.92896  |     1.54994
   16 O                |  15 C                |     2.31677  |     1.22598
   17 N                |  15 C                |     2.52909  |     1.33834
   18 H                |  17 N                |     1.90345  |     1.00726
   19 C                |  17 N                |     2.78848  |     1.47560
   20 H                |  19 C                |     2.06122  |     1.09075
   21 C                |  19 C                |     2.91830  |     1.54430
   22 H                |  21 C                |     2.06196  |     1.09114
   23 C                |  21 C                |     2.90173  |     1.53553
   24 H                |  23 C                |     2.06175  |     1.09103
   25 H                |  23 C                |     2.05930  |     1.08974
   26 H                |  23 C                |     2.05915  |     1.08966
   27 C                |  21 C                |     2.89577  |     1.53237
   28 H                |  27 C                |     2.06099  |     1.09063
   29 H                |  27 C                |     2.05860  |     1.08936
   30 H                |  27 C                |     2.05980  |     1.09000
   31 C                |  19 C                |     2.91291  |     1.54144
   32 O                |  31 C                |     2.31183  |     1.22337
   33 N                |  31 C                |     2.51131  |     1.32893
   34 H                |  33 N                |     1.91101  |     1.01126
   35 H                |  33 N                |     1.90042  |     1.00566
 ------------------------------------------------------------------------------
                         number of included internuclear distances:         34
 ==============================================================================



 ==============================================================================
                                 internuclear angles
 ------------------------------------------------------------------------------
        center 1       |       center 2       |       center 3       |  degrees
 ------------------------------------------------------------------------------
    1 H                |   2 C                |   3 H                |   109.98
    1 H                |   2 C                |   4 H                |   109.54
    1 H                |   2 C                |   5 C                |   109.73
    3 H                |   2 C                |   4 H                |   109.27
    3 H                |   2 C                |   5 C                |   109.34
    4 H                |   2 C                |   5 C                |   108.96
    2 C                |   5 C                |   6 O                |   120.23
    2 C                |   5 C                |   7 N                |   116.76
    6 O                |   5 C                |   7 N                |   122.98
    5 C                |   7 N                |   8 H                |   117.71
    5 C                |   7 N                |   9 C                |   124.88
    8 H                |   7 N                |   9 C                |   117.03
    7 N                |   9 C                |  10 H                |   107.76
    7 N                |   9 C                |  11 C                |   107.59
    7 N                |   9 C                |  15 C                |   116.00
   10 H                |   9 C                |  11 C                |   107.86
   10 H                |   9 C                |  15 C                |   105.99
   11 C                |   9 C                |  15 C                |   111.31
    9 C                |  11 C                |  12 H                |   110.10
    9 C                |  11 C                |  13 H                |   110.15
    9 C                |  11 C                |  14 H                |   109.52
   12 H                |  11 C                |  13 H                |   109.63
   12 H                |  11 C                |  14 H                |   108.58
   13 H                |  11 C                |  14 H                |   108.83
    9 C                |  15 C                |  16 O                |   119.72
    9 C                |  15 C                |  17 N                |   118.70
   16 O                |  15 C                |  17 N                |   121.58
   15 C                |  17 N                |  18 H                |   116.82
   15 C                |  17 N                |  19 C                |   124.70
   18 H                |  17 N                |  19 C                |   117.36
   17 N                |  19 C                |  20 H                |   108.02
   17 N                |  19 C                |  21 C                |   109.18
   17 N                |  19 C                |  31 C                |   112.76
   20 H                |  19 C                |  21 C                |   107.71
   20 H                |  19 C                |  31 C                |   106.44
   21 C                |  19 C                |  31 C                |   112.48
   19 C                |  21 C                |  22 H                |   107.41
   19 C                |  21 C                |  23 C                |   113.13
   19 C                |  21 C                |  27 C                |   113.08
   22 H                |  21 C                |  23 C                |   107.49
   22 H                |  21 C                |  27 C                |   106.73
   23 C                |  21 C                |  27 C                |   108.65
   21 C                |  23 C                |  24 H                |   110.38
   21 C                |  23 C                |  25 H                |   109.57
   21 C                |  23 C                |  26 H                |   110.53
   24 H                |  23 C                |  25 H                |   108.60
   24 H                |  23 C                |  26 H                |   109.15
   25 H                |  23 C                |  26 H                |   108.56
   21 C                |  27 C                |  28 H                |   110.65
   21 C                |  27 C                |  29 H                |   109.77
   21 C                |  27 C                |  30 H                |   109.75
   28 H                |  27 C                |  29 H                |   108.97
   28 H                |  27 C                |  30 H                |   108.85
   29 H                |  27 C                |  30 H                |   108.81
   19 C                |  31 C                |  32 O                |   120.81
   19 C                |  31 C                |  33 N                |   119.32
   32 O                |  31 C                |  33 N                |   119.86
   31 C                |  33 N                |  34 H                |   120.50
   31 C                |  33 N                |  35 H                |   118.16
   34 H                |  33 N                |  35 H                |   121.34
 ------------------------------------------------------------------------------
                            number of included internuclear angles:         60
 ==============================================================================



  library name resolved from: environment
  library file name is: </opt/rit/el9/20230413/app/linux-rhel9-x86_64_v3/gcc-11.2.1/nwchem-7.2.0-oxtctbuhfuzyfaoziquq6bki22grib3g/share/nwchem/libraries/>
  


 Summary of "ao basis" -> "" (cartesian)
 ------------------------------------------------------------------------------
       Tag                 Description            Shells   Functions and Types
 ---------------- ------------------------------  ------  ---------------------
 *                        aug-cc-pvdz                 on all atoms 


                      Basis "ao basis" -> "ao basis" (cartesian)
                      -----
  H (Hydrogen)
  ------------
            Exponent  Coefficients 
       -------------- ---------------------------------------------------------
  1 S  1.30100000E+01  0.019685
  1 S  1.96200000E+00  0.137977
  1 S  4.44600000E-01  0.478148

  2 S  1.22000000E-01  1.000000

  3 S  2.97400000E-02  1.000000

  4 P  7.27000000E-01  1.000000

  5 P  1.41000000E-01  1.000000

  C (Carbon)
  ----------
            Exponent  Coefficients 
       -------------- ---------------------------------------------------------
  1 S  6.66500000E+03  0.000692
  1 S  1.00000000E+03  0.005329
  1 S  2.28000000E+02  0.027077
  1 S  6.47100000E+01  0.101718
  1 S  2.10600000E+01  0.274740
  1 S  7.49500000E+00  0.448564
  1 S  2.79700000E+00  0.285074
  1 S  5.21500000E-01  0.015204

  2 S  6.66500000E+03 -0.000146
  2 S  1.00000000E+03 -0.001154
  2 S  2.28000000E+02 -0.005725
  2 S  6.47100000E+01 -0.023312
  2 S  2.10600000E+01 -0.063955
  2 S  7.49500000E+00 -0.149981
  2 S  2.79700000E+00 -0.127262
  2 S  5.21500000E-01  0.544529

  3 S  1.59600000E-01  1.000000

  4 S  4.69000000E-02  1.000000

  5 P  9.43900000E+00  0.038109
  5 P  2.00200000E+00  0.209480
  5 P  5.45600000E-01  0.508557

  6 P  1.51700000E-01  1.000000

  7 P  4.04100000E-02  1.000000

  8 D  5.50000000E-01  1.000000

  9 D  1.51000000E-01  1.000000

  O (Oxygen)
  ----------
            Exponent  Coefficients 
       -------------- ---------------------------------------------------------
  1 S  1.17200000E+04  0.000710
  1 S  1.75900000E+03  0.005470
  1 S  4.00800000E+02  0.027837
  1 S  1.13700000E+02  0.104800
  1 S  3.70300000E+01  0.283062
  1 S  1.32700000E+01  0.448719
  1 S  5.02500000E+00  0.270952
  1 S  1.01300000E+00  0.015458

  2 S  1.17200000E+04 -0.000160
  2 S  1.75900000E+03 -0.001263
  2 S  4.00800000E+02 -0.006267
  2 S  1.13700000E+02 -0.025716
  2 S  3.70300000E+01 -0.070924
  2 S  1.32700000E+01 -0.165411
  2 S  5.02500000E+00 -0.116955
  2 S  1.01300000E+00  0.557368

  3 S  3.02300000E-01  1.000000

  4 S  7.89600000E-02  1.000000

  5 P  1.77000000E+01  0.043018
  5 P  3.85400000E+00  0.228913
  5 P  1.04600000E+00  0.508728

  6 P  2.75300000E-01  1.000000

  7 P  6.85600000E-02  1.000000

  8 D  1.18500000E+00  1.000000

  9 D  3.32000000E-01  1.000000

  N (Nitrogen)
  ------------
            Exponent  Coefficients 
       -------------- ---------------------------------------------------------
  1 S  9.04600000E+03  0.000700
  1 S  1.35700000E+03  0.005389
  1 S  3.09300000E+02  0.027406
  1 S  8.77300000E+01  0.103207
  1 S  2.85600000E+01  0.278723
  1 S  1.02100000E+01  0.448540
  1 S  3.83800000E+00  0.278238
  1 S  7.46600000E-01  0.015440

  2 S  9.04600000E+03 -0.000153
  2 S  1.35700000E+03 -0.001208
  2 S  3.09300000E+02 -0.005992
  2 S  8.77300000E+01 -0.024544
  2 S  2.85600000E+01 -0.067459
  2 S  1.02100000E+01 -0.158078
  2 S  3.83800000E+00 -0.121831
  2 S  7.46600000E-01  0.549003

  3 S  2.24800000E-01  1.000000

  4 S  6.12400000E-02  1.000000

  5 P  1.35500000E+01  0.039919
  5 P  2.91700000E+00  0.217169
  5 P  7.97300000E-01  0.510319

  6 P  2.18500000E-01  1.000000

  7 P  5.61100000E-02  1.000000

  8 D  8.17000000E-01  1.000000

  9 D  2.30000000E-01  1.000000



 Summary of "ao basis" -> "ao basis" (cartesian)
 ------------------------------------------------------------------------------
       Tag                 Description            Shells   Functions and Types
 ---------------- ------------------------------  ------  ---------------------
 H                        aug-cc-pvdz                5        9   3s2p
 C                        aug-cc-pvdz                9       25   4s3p2d
 O                        aug-cc-pvdz                9       25   4s3p2d
 N                        aug-cc-pvdz                9       25   4s3p2d


                                 NWChem SCF Module
                                 -----------------



  ao basis        = "ao basis"
  functions       =   571
  atoms           =    35
  closed shells   =    62
  open shells     =     0
  charge          =   0.00
  wavefunction    = RHF 
  input vectors   = atomic
  output vectors  = ./ALA_VAL_2.movecs
  use symmetry    = F
  symmetry adapt  = F


 Summary of "ao basis" -> "ao basis" (cartesian)
 ------------------------------------------------------------------------------
       Tag                 Description            Shells   Functions and Types
 ---------------- ------------------------------  ------  ---------------------
 H                        aug-cc-pvdz                5        9   3s2p
 C                        aug-cc-pvdz                9       25   4s3p2d
 O                        aug-cc-pvdz                9       25   4s3p2d
 N                        aug-cc-pvdz                9       25   4s3p2d



 Forming initial guess at       0.6s


 !! The overlap matrix has   5 vectors deemed linearly dependent with
    eigenvalues:
 2.96D-06 4.30D-06 6.39D-06 8.07D-06 9.32D-06


      Superposition of Atomic Density Guess
      -------------------------------------

 Sum of atomic energies:        -773.36615600

      Non-variational initial energy
      ------------------------------

 Total energy =    -784.016044
 1-e energy   =   -3475.276368
 2-e energy   =    1470.238122
 HOMO         =      -0.308489
 LUMO         =       0.012328


 Starting SCF solution at     560.7s



 ----------------------------------------------
         Quadratically convergent ROHF

 Convergence threshold     :          1.000E-04
 Maximum no. of iterations :           30
 Final Fock-matrix accuracy:          1.000E-10
 ----------------------------------------------


              iter       energy          gnorm     gmax       time
             ----- ------------------- --------- --------- --------
                 1     -777.4744731817  2.43D+00  2.02D-01   1145.5
                 2     -777.7913421500  8.34D-01  4.33D-02   2319.1
                 3     -777.8524666974  6.53D-02  5.10D-03   4020.6
                 4     -777.8530973217  1.88D-03  1.27D-04   6836.3
                 5     -777.8530977780  4.82D-06  3.63D-07  10766.6


       Final RHF  results 
       ------------------ 

         Total SCF energy =   -777.853097777989
      One-electron energy =  -3487.482854366210
      Two-electron energy =   1488.607555222036
 Nuclear repulsion energy =   1221.022201366185

        Time for solution =  10208.3s


             Final eigenvalues
             -----------------

              1      
    1  -20.5572
    2  -20.5286
    3  -20.5034
    4  -15.6298
    5  -15.5986
    6  -15.5685
    7  -11.3863
    8  -11.3640
    9  -11.3386
   10  -11.3154
   11  -11.2867
   12  -11.2680
   13  -11.2573
   14  -11.2465
   15  -11.2276
   16  -11.2121
   17   -1.4217
   18   -1.3888
   19   -1.3669
   20   -1.2778
   21   -1.2448
   22   -1.1934
   23   -1.0945
   24   -1.0763
   25   -1.0173
   26   -0.9721
   27   -0.9330
   28   -0.9007
   29   -0.8380
   30   -0.8225
   31   -0.7934
   32   -0.7689
   33   -0.7424
   34   -0.7228
   35   -0.7038
   36   -0.6936
   37   -0.6652
   38   -0.6461
   39   -0.6379
   40   -0.6242
   41   -0.6134
   42   -0.6075
   43   -0.5977
   44   -0.5919
   45   -0.5841
   46   -0.5653
   47   -0.5606
   48   -0.5551
   49   -0.5528
   50   -0.5462
   51   -0.5365
   52   -0.5309
   53   -0.5102
   54   -0.4842
   55   -0.4815
   56   -0.4670
   57   -0.4569
   58   -0.4534
   59   -0.4271
   60   -0.4085
   61   -0.3883
   62   -0.3799
   63    0.0152
   64    0.0305
   65    0.0340
   66    0.0421
   67    0.0494
   68    0.0515
   69    0.0553
   70    0.0561
   71    0.0638
   72    0.0693

                       ROHF Final Molecular Orbital Analysis
                       -------------------------------------

 Vector   17  Occ=2.000000D+00  E=-1.421706D+00
              MO Center= -1.1D+00, -1.8D+00,  8.1D-01, r^2= 1.1D+00
   Bfn.  Coefficient  Atom+Function         Bfn.  Coefficient  Atom+Function  
  ----- ------------  ---------------      ----- ------------  ---------------
    79      0.345710   6 O  s                80      0.344285   6 O  s         
    54      0.243340   5 C  s                12      0.193133   2 C  s         

 Vector   18  Occ=2.000000D+00  E=-1.388832D+00
              MO Center=  1.9D+00, -3.6D-01,  1.3D-01, r^2= 1.5D+00
   Bfn.  Coefficient  Atom+Function         Bfn.  Coefficient  Atom+Function  
  ----- ------------  ---------------      ----- ------------  ---------------
   250      0.357823  16 O  s               249      0.340380  16 O  s         
   224      0.241950  15 C  s         

 Vector   19  Occ=2.000000D+00  E=-1.366911D+00
              MO Center=  5.3D-01,  2.6D+00,  1.3D+00, r^2= 1.2D+00
   Bfn.  Coefficient  Atom+Function         Bfn.  Coefficient  Atom+Function  
  ----- ------------  ---------------      ----- ------------  ---------------
   506      0.378156  32 O  s               505      0.348471  32 O  s         
   480      0.244223  31 C  s         

 Vector   20  Occ=2.000000D+00  E=-1.277839D+00
              MO Center= -2.5D-01, -2.4D+00, -5.0D-02, r^2= 2.0D+00
   Bfn.  Coefficient  Atom+Function         Bfn.  Coefficient  Atom+Function  
  ----- ------------  ---------------      ----- ------------  ---------------
   105      0.399782   7 N  s               104      0.339168   7 N  s         
    80     -0.219167   6 O  s               139     -0.197132   9 C  s         
    79     -0.181219   6 O  s               128      0.156768   8 H  s         

 Vector   21  Occ=2.000000D+00  E=-1.244757D+00
              MO Center=  6.4D-01,  1.6D-01, -1.8D-01, r^2= 2.5D+00
   Bfn.  Coefficient  Atom+Function         Bfn.  Coefficient  Atom+Function  
  ----- ------------  ---------------      ----- ------------  ---------------
   275      0.384568  17 N  s               274      0.327842  17 N  s         
   309     -0.213728  19 C  s               250     -0.200409  16 O  s         
   227     -0.167549  15 C  px              249     -0.164029  16 O  s         
   298      0.151945  18 H  s         

 Vector   22  Occ=2.000000D+00  E=-1.193406D+00
              MO Center=  1.5D-02,  1.4D+00,  1.7D+00, r^2= 1.8D+00
   Bfn.  Coefficient  Atom+Function         Bfn.  Coefficient  Atom+Function  
  ----- ------------  ---------------      ----- ------------  ---------------
   531      0.381782  33 N  s               530      0.365536  33 N  s         
   309     -0.260580  19 C  s               506     -0.200450  32 O  s         
   484     -0.176045  31 C  py              505     -0.168484  32 O  s         
   554      0.161058  34 H  s               563      0.158584  35 H  s         
   488     -0.150486  31 C  pz        

 Vector   23  Occ=2.000000D+00  E=-1.094525D+00
              MO Center= -2.3D-01,  1.0D+00, -7.9D-01, r^2= 6.6D+00
   Bfn.  Coefficient  Atom+Function         Bfn.  Coefficient  Atom+Function  
  ----- ------------  ---------------      ----- ------------  ---------------
   309      0.300381  19 C  s               342      0.233704  21 C  s         
   430     -0.157990  27 C  s         

 Vector   24  Occ=2.000000D+00  E=-1.076318D+00
              MO Center=  9.4D-02, -1.5D+00, -4.6D-01, r^2= 8.3D+00
   Bfn.  Coefficient  Atom+Function         Bfn.  Coefficient  Atom+Function  
  ----- ------------  ---------------      ----- ------------  ---------------
   309      0.250284  19 C  s               138      0.210096   9 C  s         
   172      0.186646  11 C  s                12     -0.166012   2 C  s         
   225      0.150879  15 C  s         

 Vector   25  Occ=2.000000D+00  E=-1.017261D+00
              MO Center= -1.3D+00, -2.8D+00, -1.7D-01, r^2= 5.0D+00
   Bfn.  Coefficient  Atom+Function         Bfn.  Coefficient  Atom+Function  
  ----- ------------  ---------------      ----- ------------  ---------------
    11      0.313391   2 C  s               172      0.168860  11 C  s         
    57     -0.166108   5 C  px               55      0.152349   5 C  s         

 Vector   26  Occ=2.000000D+00  E=-9.721279D-01
              MO Center=  1.1D-01,  1.1D+00, -4.3D-01, r^2= 5.7D+00
   Bfn.  Coefficient  Atom+Function         Bfn.  Coefficient  Atom+Function  
  ----- ------------  ---------------      ----- ------------  ---------------
   308      0.259582  19 C  s               348      0.202297  21 C  px        
   139     -0.186137   9 C  s               145     -0.184138   9 C  py        
   316      0.170646  19 C  pz              278      0.169208  17 N  py        
   376     -0.168167  23 C  s               482     -0.156402  31 C  s         

 Vector   27  Occ=2.000000D+00  E=-9.330268D-01
              MO Center= -9.9D-01,  2.7D+00, -1.2D+00, r^2= 3.6D+00
   Bfn.  Coefficient  Atom+Function         Bfn.  Coefficient  Atom+Function  
  ----- ------------  ---------------      ----- ------------  ---------------
   428      0.277479  27 C  s               349      0.275007  21 C  py        
   376     -0.261964  23 C  s               348      0.231845  21 C  px        

 Vector   28  Occ=2.000000D+00  E=-9.006692D-01
              MO Center=  1.1D+00, -1.9D+00, -4.3D-01, r^2= 6.5D+00
   Bfn.  Coefficient  Atom+Function         Bfn.  Coefficient  Atom+Function  
  ----- ------------  ---------------      ----- ------------  ---------------
   172      0.236740  11 C  s               139     -0.215468   9 C  s         
   138     -0.201482   9 C  s               145     -0.201867   9 C  py        
   173      0.155293  11 C  s         

 Vector   29  Occ=2.000000D+00  E=-8.380181D-01
              MO Center= -3.4D-01, -2.2D+00, -6.3D-02, r^2= 4.2D+00
   Bfn.  Coefficient  Atom+Function         Bfn.  Coefficient  Atom+Function  
  ----- ------------  ---------------      ----- ------------  ---------------
   128      0.237919   8 H  s               139     -0.230375   9 C  s         
   105      0.220747   7 N  s               107      0.218847   7 N  px        
   109     -0.216172   7 N  pz               54     -0.213128   5 C  s         
    60     -0.212147   5 C  px               80      0.171806   6 O  s         
    12     -0.169272   2 C  s                17     -0.155433   2 C  px        

 Vector   30  Occ=2.000000D+00  E=-8.224502D-01
              MO Center= -1.4D-01,  1.3D+00, -6.0D-02, r^2= 6.1D+00
   Bfn.  Coefficient  Atom+Function         Bfn.  Coefficient  Atom+Function  
  ----- ------------  ---------------      ----- ------------  ---------------
   309      0.399100  19 C  s               343     -0.212851  21 C  s         
   488      0.179451  31 C  pz              316      0.173688  19 C  pz        
   480      0.172645  31 C  s               313      0.166235  19 C  pz        
   299     -0.157991  18 H  s               535     -0.157032  33 N  pz        
   342     -0.153331  21 C  s               429      0.151983  27 C  s         

 Vector   31  Occ=2.000000D+00  E=-7.933507D-01
              MO Center=  4.1D-01,  3.0D-01, -3.7D-01, r^2= 5.3D+00
   Bfn.  Coefficient  Atom+Function         Bfn.  Coefficient  Atom+Function  
  ----- ------------  ---------------      ----- ------------  ---------------
   277      0.290237  17 N  px              298     -0.243039  18 H  s         
   225      0.234362  15 C  s               275     -0.209050  17 N  s         
   250     -0.189540  16 O  s               224      0.188451  15 C  s         
   299     -0.176013  18 H  s               343      0.167193  21 C  s         

 Vector   32  Occ=2.000000D+00  E=-7.689078D-01
              MO Center= -7.5D-02,  1.1D+00,  3.6D-01, r^2= 6.2D+00
   Bfn.  Coefficient  Atom+Function         Bfn.  Coefficient  Atom+Function  
  ----- ------------  ---------------      ----- ------------  ---------------
   343      0.270734  21 C  s               377     -0.210756  23 C  s         
   488      0.186887  31 C  pz              534      0.185787  33 N  py        
   225     -0.168142  15 C  s               535     -0.167447  33 N  pz        
   480      0.158859  31 C  s               554     -0.156418  34 H  s         
   429     -0.154861  27 C  s               315      0.152846  19 C  py        

 Vector   33  Occ=2.000000D+00  E=-7.424398D-01
              MO Center=  7.3D-02, -1.5D-01,  7.0D-01, r^2= 5.7D+00
   Bfn.  Coefficient  Atom+Function         Bfn.  Coefficient  Atom+Function  
  ----- ------------  ---------------      ----- ------------  ---------------
   225      0.267400  15 C  s               145     -0.237418   9 C  py        
   534      0.235189  33 N  py              554     -0.219292  34 H  s         
   481      0.212313  31 C  s               315     -0.176102  19 C  py        
   485      0.173003  31 C  pz              316     -0.158700  19 C  pz        
   144     -0.153006   9 C  px              228      0.150254  15 C  py        

 Vector   34  Occ=2.000000D+00  E=-7.228096D-01
              MO Center= -4.7D-01, -1.5D+00,  7.7D-02, r^2= 7.3D+00
   Bfn.  Coefficient  Atom+Function         Bfn.  Coefficient  Atom+Function  
  ----- ------------  ---------------      ----- ------------  ---------------
   145      0.285960   9 C  py              225     -0.284397  15 C  s         
   139      0.228279   9 C  s                57     -0.193068   5 C  px        
   343     -0.182244  21 C  s               144      0.179153   9 C  px        
   109     -0.172756   7 N  pz              128      0.172413   8 H  s         
    17      0.168110   2 C  px               55     -0.151300   5 C  s         

 Vector   35  Occ=2.000000D+00  E=-7.038393D-01
              MO Center=  2.5D-01, -8.0D-01,  2.7D-01, r^2= 7.5D+00
   Bfn.  Coefficient  Atom+Function         Bfn.  Coefficient  Atom+Function  
  ----- ------------  ---------------      ----- ------------  ---------------
   162     -0.183691  10 H  s               108      0.172433   7 N  py        
   143     -0.166936   9 C  pz              535      0.165439  33 N  pz        
   563      0.161745  35 H  s         

 Vector   36  Occ=2.000000D+00  E=-6.936400D-01
              MO Center= -6.9D-01, -7.9D-01,  7.8D-01, r^2= 7.0D+00
   Bfn.  Coefficient  Atom+Function         Bfn.  Coefficient  Atom+Function  
  ----- ------------  ---------------      ----- ------------  ---------------
    80      0.213515   6 O  s               534      0.199608  33 N  py        
   554     -0.176836  34 H  s                57      0.174570   5 C  px        
   106     -0.173376   7 N  s                84      0.168616   6 O  pz        
    83      0.164632   6 O  py        

 Vector   37  Occ=2.000000D+00  E=-6.652408D-01
              MO Center=  2.6D-01,  1.8D-01,  1.9D-01, r^2= 8.6D+00
   Bfn.  Coefficient  Atom+Function         Bfn.  Coefficient  Atom+Function  
  ----- ------------  ---------------      ----- ------------  ---------------
   278      0.199248  17 N  py              535     -0.168096  33 N  pz        
   312     -0.163028  19 C  py              563     -0.151062  35 H  s         

 Vector   38  Occ=2.000000D+00  E=-6.461367D-01
              MO Center= -2.3D-01, -1.6D-01, -1.4D-01, r^2= 1.0D+01
   Bfn.  Coefficient  Atom+Function         Bfn.  Coefficient  Atom+Function  
  ----- ------------  ---------------      ----- ------------  ---------------
   139      0.194834   9 C  s               276     -0.164085  17 N  s         
   252      0.161110  16 O  px              311      0.161813  19 C  px        

 Vector   39  Occ=2.000000D+00  E=-6.379219D-01
              MO Center= -8.0D-01, -1.2D+00, -1.6D-01, r^2= 9.6D+00
   Bfn.  Coefficient  Atom+Function         Bfn.  Coefficient  Atom+Function  
  ----- ------------  ---------------      ----- ------------  ---------------
     1      0.190540   1 H  s                15      0.181790   2 C  py        
    35     -0.177108   3 H  s                16     -0.166972   2 C  pz        
   252     -0.152324  16 O  px        

 Vector   40  Occ=2.000000D+00  E=-6.241571D-01
              MO Center=  1.2D-01,  7.3D-01,  1.6D-01, r^2= 8.8D+00
   Bfn.  Coefficient  Atom+Function         Bfn.  Coefficient  Atom+Function  
  ----- ------------  ---------------      ----- ------------  ---------------
   252      0.195414  16 O  px        

 Vector   41  Occ=2.000000D+00  E=-6.134457D-01
              MO Center= -8.0D-02,  8.8D-01, -6.0D-01, r^2= 9.2D+00
   Bfn.  Coefficient  Atom+Function         Bfn.  Coefficient  Atom+Function  
  ----- ------------  ---------------      ----- ------------  ---------------
   361      0.185532  21 C  dxy             431      0.181606  27 C  px        
   418      0.174327  26 H  s               419      0.173055  26 H  s         
   275     -0.167818  17 N  s               461      0.162479  29 H  s         
   345      0.158545  21 C  px              380     -0.158127  23 C  py        
   225      0.151843  15 C  s         

 Vector   42  Occ=2.000000D+00  E=-6.075458D-01
              MO Center= -2.6D-01, -9.7D-01,  2.4D-01, r^2= 9.2D+00
   Bfn.  Coefficient  Atom+Function         Bfn.  Coefficient  Atom+Function  
  ----- ------------  ---------------      ----- ------------  ---------------
    84      0.200693   6 O  pz              252     -0.179024  16 O  px        
    83      0.168967   6 O  py               45      0.159584   4 H  s         
    59     -0.160246   5 C  pz               58     -0.158700   5 C  py        
   128     -0.156090   8 H  s         

 Vector   43  Occ=2.000000D+00  E=-5.976802D-01
              MO Center= -4.7D-01, -1.5D+00,  1.7D-01, r^2= 9.7D+00
   Bfn.  Coefficient  Atom+Function         Bfn.  Coefficient  Atom+Function  
  ----- ------------  ---------------      ----- ------------  ---------------
    44      0.227294   4 H  s                16      0.220766   2 C  pz        
    45      0.220935   4 H  s                 1     -0.150560   1 H  s         
   175      0.150367  11 C  px        

 Vector   44  Occ=2.000000D+00  E=-5.918573D-01
              MO Center= -1.3D-01, -1.3D+00, -2.3D-03, r^2= 1.1D+01
   Bfn.  Coefficient  Atom+Function         Bfn.  Coefficient  Atom+Function  
  ----- ------------  ---------------      ----- ------------  ---------------
    44      0.231170   4 H  s                14     -0.182875   2 C  px        
    45      0.166638   4 H  s               254     -0.152868  16 O  pz        
   279     -0.151316  17 N  pz        

 Vector   45  Occ=2.000000D+00  E=-5.841378D-01
              MO Center= -1.9D-03,  7.0D-01, -5.9D-01, r^2= 9.1D+00
   Bfn.  Coefficient  Atom+Function         Bfn.  Coefficient  Atom+Function  
  ----- ------------  ---------------      ----- ------------  ---------------
   380      0.231906  23 C  py              309     -0.202755  19 C  s         
   418     -0.197378  26 H  s               276     -0.176797  17 N  s         
   299      0.165955  18 H  s               333      0.152969  20 H  s         
   419     -0.152934  26 H  s         

 Vector   46  Occ=2.000000D+00  E=-5.652625D-01
              MO Center=  4.7D-01,  2.3D-01,  6.1D-02, r^2= 1.1D+01
   Bfn.  Coefficient  Atom+Function         Bfn.  Coefficient  Atom+Function  
  ----- ------------  ---------------      ----- ------------  ---------------
   509      0.234926  32 O  py              177      0.211095  11 C  pz        
   139      0.203048   9 C  s               205     -0.196686  13 H  s         
   484     -0.186261  31 C  py              206     -0.163446  13 H  s         
   316      0.159055  19 C  pz              343      0.157070  21 C  s         

 Vector   47  Occ=2.000000D+00  E=-5.605699D-01
              MO Center= -6.4D-01, -1.5D+00,  6.6D-02, r^2= 9.4D+00
   Bfn.  Coefficient  Atom+Function         Bfn.  Coefficient  Atom+Function  
  ----- ------------  ---------------      ----- ------------  ---------------
    35     -0.198276   3 H  s                15      0.187609   2 C  py        
     1      0.161041   1 H  s                 2      0.159843   1 H  s         
   108     -0.159703   7 N  py               36     -0.157115   3 H  s         
   509      0.157623  32 O  py               84      0.152444   6 O  pz        
   111     -0.151149   7 N  py        

 Vector   48  Occ=2.000000D+00  E=-5.550583D-01
              MO Center=  9.8D-01, -2.2D+00, -4.9D-01, r^2= 8.2D+00
   Bfn.  Coefficient  Atom+Function         Bfn.  Coefficient  Atom+Function  
  ----- ------------  ---------------      ----- ------------  ---------------
   175      0.290872  11 C  px              214      0.282835  14 H  s         
   215      0.281834  14 H  s               197     -0.221355  12 H  s         
   196     -0.180380  12 H  s               107      0.178341   7 N  px        
    55     -0.174249   5 C  s                12      0.172893   2 C  s         
   105      0.162780   7 N  s                44     -0.157404   4 H  s         

 Vector   49  Occ=2.000000D+00  E=-5.527631D-01
              MO Center=  5.5D-01, -9.6D-01, -2.6D-01, r^2= 1.1D+01
   Bfn.  Coefficient  Atom+Function         Bfn.  Coefficient  Atom+Function  
  ----- ------------  ---------------      ----- ------------  ---------------
   176      0.218253  11 C  py              196     -0.178133  12 H  s         
   142     -0.151882   9 C  py        

 Vector   50  Occ=2.000000D+00  E=-5.462326D-01
              MO Center= -3.3D-01,  2.2D+00,  1.5D-01, r^2= 5.9D+00
   Bfn.  Coefficient  Atom+Function         Bfn.  Coefficient  Atom+Function  
  ----- ------------  ---------------      ----- ------------  ---------------
   410      0.254363  25 H  s               377     -0.211790  23 C  s         
   343      0.207322  21 C  s               483     -0.201327  31 C  px        
   533     -0.195795  33 N  px              508     -0.182234  32 O  px        
   453     -0.170924  28 H  s               379     -0.164233  23 C  px        
   409      0.162875  25 H  s               452     -0.154246  28 H  s         

 Vector   51  Occ=2.000000D+00  E=-5.364557D-01
              MO Center= -5.6D-01,  1.6D+00, -5.2D-01, r^2= 9.6D+00
   Bfn.  Coefficient  Atom+Function         Bfn.  Coefficient  Atom+Function  
  ----- ------------  ---------------      ----- ------------  ---------------
   381      0.243909  23 C  pz              400      0.223546  24 H  s         
   433     -0.213961  27 C  pz              452     -0.214835  28 H  s         
   309     -0.188080  19 C  s               410     -0.172439  25 H  s         
   401      0.171083  24 H  s               409     -0.150550  25 H  s         

 Vector   52  Occ=2.000000D+00  E=-5.309181D-01
              MO Center= -1.7D-01,  1.7D+00, -9.5D-01, r^2= 1.0D+01
   Bfn.  Coefficient  Atom+Function         Bfn.  Coefficient  Atom+Function  
  ----- ------------  ---------------      ----- ------------  ---------------
   470      0.264144  30 H  s               471      0.257240  30 H  s         
   410     -0.232706  25 H  s               433     -0.207670  27 C  pz        
   431     -0.203924  27 C  px              315      0.170276  19 C  py        
   381      0.158476  23 C  pz              409     -0.154432  25 H  s         

 Vector   53  Occ=2.000000D+00  E=-5.101888D-01
              MO Center=  8.6D-01, -3.4D-01, -1.2D-01, r^2= 8.6D+00
   Bfn.  Coefficient  Atom+Function         Bfn.  Coefficient  Atom+Function  
  ----- ------------  ---------------      ----- ------------  ---------------
   309      0.268699  19 C  s               143     -0.218184   9 C  pz        
   343     -0.205846  21 C  s               254      0.204179  16 O  pz        
   162     -0.175437  10 H  s               177      0.168452  11 C  pz        
   257      0.159467  16 O  pz              229      0.153716  15 C  pz        

 Vector   54  Occ=2.000000D+00  E=-4.842044D-01
              MO Center= -4.8D-01,  2.4D+00, -8.4D-01, r^2= 4.3D+00
   Bfn.  Coefficient  Atom+Function         Bfn.  Coefficient  Atom+Function  
  ----- ------------  ---------------      ----- ------------  ---------------
   347      0.283326  21 C  pz              366     -0.244371  22 H  s         
   367     -0.225804  22 H  s               410      0.225488  25 H  s         
   401     -0.206926  24 H  s               433     -0.192792  27 C  pz        
   453     -0.191575  28 H  s               471      0.182395  30 H  s         
   510      0.180108  32 O  pz              311     -0.178706  19 C  px        

 Vector   55  Occ=2.000000D+00  E=-4.815458D-01
              MO Center= -4.6D-01,  2.1D+00, -9.3D-01, r^2= 4.7D+00
   Bfn.  Coefficient  Atom+Function         Bfn.  Coefficient  Atom+Function  
  ----- ------------  ---------------      ----- ------------  ---------------
   419      0.316924  26 H  s               346      0.311724  21 C  py        
   432     -0.288699  27 C  py              435     -0.270827  27 C  py        
   481     -0.188380  31 C  s               380     -0.177850  23 C  py        
   418      0.176672  26 H  s               366     -0.166382  22 H  s         
   367     -0.166122  22 H  s               316      0.160329  19 C  pz        

 Vector   56  Occ=2.000000D+00  E=-4.669826D-01
              MO Center= -5.0D-01,  2.1D+00, -9.2D-01, r^2= 4.8D+00
   Bfn.  Coefficient  Atom+Function         Bfn.  Coefficient  Atom+Function  
  ----- ------------  ---------------      ----- ------------  ---------------
   345      0.303553  21 C  px              379     -0.286805  23 C  px        
   462     -0.251107  29 H  s               333     -0.238409  20 H  s         
   461     -0.212410  29 H  s               382     -0.207509  23 C  px        
   431     -0.191077  27 C  px              311     -0.185464  19 C  px        
   332     -0.152836  20 H  s         

 Vector   57  Occ=2.000000D+00  E=-4.569101D-01
              MO Center= -1.0D+00, -1.6D+00,  7.1D-01, r^2= 3.9D+00
   Bfn.  Coefficient  Atom+Function         Bfn.  Coefficient  Atom+Function  
  ----- ------------  ---------------      ----- ------------  ---------------
    82      0.470781   6 O  px               85      0.378508   6 O  px        
   225      0.189222  15 C  s               276     -0.189666  17 N  s         
    13     -0.171755   2 C  s                17      0.160156   2 C  px        
   105     -0.151534   7 N  s         

 Vector   58  Occ=2.000000D+00  E=-4.533542D-01
              MO Center=  1.9D-01, -1.2D+00,  1.8D-01, r^2= 6.2D+00
   Bfn.  Coefficient  Atom+Function         Bfn.  Coefficient  Atom+Function  
  ----- ------------  ---------------      ----- ------------  ---------------
   253      0.282872  16 O  py              139      0.272539   9 C  s         
   109     -0.242364   7 N  pz              256      0.226061  16 O  py        
   112     -0.210989   7 N  pz              108      0.208232   7 N  py        
    82      0.188452   6 O  px              111      0.189002   7 N  py        
   173     -0.189140  11 C  s                83     -0.187318   6 O  py        

 Vector   59  Occ=2.000000D+00  E=-4.270891D-01
              MO Center=  9.5D-01,  6.6D-01,  3.2D-01, r^2= 6.4D+00
   Bfn.  Coefficient  Atom+Function         Bfn.  Coefficient  Atom+Function  
  ----- ------------  ---------------      ----- ------------  ---------------
   333      0.311478  20 H  s               510     -0.287944  32 O  pz        
   254      0.278491  16 O  pz              513     -0.230710  32 O  pz        
   279     -0.223099  17 N  pz              257      0.215058  16 O  pz        
   282     -0.213578  17 N  pz              253     -0.207436  16 O  py        
   309     -0.193772  19 C  s               256     -0.159454  16 O  py        

 Vector   60  Occ=2.000000D+00  E=-4.084695D-01
              MO Center=  9.7D-01, -5.4D-01,  2.6D-01, r^2= 6.5D+00
   Bfn.  Coefficient  Atom+Function         Bfn.  Coefficient  Atom+Function  
  ----- ------------  ---------------      ----- ------------  ---------------
   253      0.352608  16 O  py              139      0.290496   9 C  s         
   145      0.286662   9 C  py              256      0.279622  16 O  py        
   108     -0.217605   7 N  py              225     -0.217909  15 C  s         
   510     -0.208825  32 O  pz              309     -0.207293  19 C  s         
   111     -0.197037   7 N  py              142      0.181688   9 C  py        

 Vector   61  Occ=2.000000D+00  E=-3.883317D-01
              MO Center=  1.7D-01,  2.1D+00,  1.7D+00, r^2= 2.2D+00
   Bfn.  Coefficient  Atom+Function         Bfn.  Coefficient  Atom+Function  
  ----- ------------  ---------------      ----- ------------  ---------------
   533      0.407057  33 N  px              508     -0.367763  32 O  px        
   536      0.356515  33 N  px              511     -0.290907  32 O  px        
   343      0.217121  21 C  s         

 Vector   62  Occ=2.000000D+00  E=-3.799067D-01
              MO Center=  7.7D-01,  1.3D+00,  3.8D-01, r^2= 4.8D+00
   Bfn.  Coefficient  Atom+Function         Bfn.  Coefficient  Atom+Function  
  ----- ------------  ---------------      ----- ------------  ---------------
   510     -0.348955  32 O  pz              279      0.328407  17 N  pz        
   282      0.314376  17 N  pz              276     -0.291891  17 N  s         
   513     -0.274365  32 O  pz              254     -0.225101  16 O  pz        
   333      0.194430  20 H  s               313     -0.190973  19 C  pz        
   257     -0.177093  16 O  pz              430      0.174818  27 C  s         

 Vector   63  Occ=0.000000D+00  E= 1.519078D-02
              MO Center= -1.5D+00, -4.1D+00, -1.9D+00, r^2= 1.8D+01
   Bfn.  Coefficient  Atom+Function         Bfn.  Coefficient  Atom+Function  
  ----- ------------  ---------------      ----- ------------  ---------------
   300      3.363122  18 H  s               234     -2.590515  15 C  py        
    63     -2.550159   5 C  px                3     -2.092126   1 H  s         
   147     -1.590502   9 C  px               12      1.519258   2 C  s         
   482      1.404394  31 C  s                37     -1.383987   3 H  s         
   198     -1.343309  12 H  s               368     -1.324035  22 H  s         

 Vector   64  Occ=0.000000D+00  E= 3.049801D-02
              MO Center= -1.2D+00, -2.5D+00, -1.8D+00, r^2= 3.1D+01
   Bfn.  Coefficient  Atom+Function         Bfn.  Coefficient  Atom+Function  
  ----- ------------  ---------------      ----- ------------  ---------------
   234      4.608149  15 C  py              300      4.394831  18 H  s         
   106      3.593075   7 N  s               198      3.035149  12 H  s         
     3     -2.624875   1 H  s               318      2.512684  19 C  py        
    37      2.241464   3 H  s               226     -2.109380  15 C  s         
   147      2.094840   9 C  px              368     -2.030004  22 H  s         

 Vector   65  Occ=0.000000D+00  E= 3.398330D-02
              MO Center= -1.7D+00, -3.0D+00, -1.0D+00, r^2= 3.1D+01
   Bfn.  Coefficient  Atom+Function         Bfn.  Coefficient  Atom+Function  
  ----- ------------  ---------------      ----- ------------  ---------------
    63      3.867064   5 C  px              106     -2.389674   7 N  s         
    46      2.359091   4 H  s               147      2.336937   9 C  px        
   173      2.223428  11 C  s                12     -2.005369   2 C  s         
   207     -1.861396  13 H  s               130     -1.686743   8 H  s         
   206     -1.693052  13 H  s               149     -1.668263   9 C  pz        

 Vector   66  Occ=0.000000D+00  E= 4.213247D-02
              MO Center= -4.9D-01, -8.5D-01, -7.9D-01, r^2= 4.2D+01
   Bfn.  Coefficient  Atom+Function         Bfn.  Coefficient  Atom+Function  
  ----- ------------  ---------------      ----- ------------  ---------------
   482      2.956505  31 C  s               310      2.253854  19 C  s         
   130      2.108072   8 H  s               164     -1.834861  10 H  s         
   318      1.721997  19 C  py               46     -1.634803   4 H  s         
   411     -1.557416  25 H  s               276      1.527871  17 N  s         
     3      1.491044   1 H  s               198     -1.468967  12 H  s         

 Vector   67  Occ=0.000000D+00  E= 4.936976D-02
              MO Center= -1.2D+00,  3.6D-01, -1.7D+00, r^2= 4.4D+01
   Bfn.  Coefficient  Atom+Function         Bfn.  Coefficient  Atom+Function  
  ----- ------------  ---------------      ----- ------------  ---------------
   472      3.230916  30 H  s                56     -3.105120   5 C  s         
   234     -2.940130  15 C  py               37      2.916040   3 H  s         
   352     -2.632924  21 C  py               46     -2.475250   4 H  s         
   430      2.392244  27 C  s               318     -2.294037  19 C  py        
   319      2.293327  19 C  pz              482     -2.293448  31 C  s         

 Vector   68  Occ=0.000000D+00  E= 5.146816D-02
              MO Center= -8.3D-01, -7.8D-01, -2.0D+00, r^2= 3.8D+01
   Bfn.  Coefficient  Atom+Function         Bfn.  Coefficient  Atom+Function  
  ----- ------------  ---------------      ----- ------------  ---------------
   411      3.334337  25 H  s               198      3.111301  12 H  s         
   368     -2.989143  22 H  s               207     -2.957008  13 H  s         
   234      2.648408  15 C  py              106      2.612422   7 N  s         
   174      2.613227  11 C  s               420      2.373377  26 H  s         
   385      2.240636  23 C  px               37     -1.870476   3 H  s         

 Vector   69  Occ=0.000000D+00  E= 5.527772D-02
              MO Center= -5.0D-01, -4.9D-01,  1.9D+00, r^2= 3.7D+01
   Bfn.  Coefficient  Atom+Function         Bfn.  Coefficient  Atom+Function  
  ----- ------------  ---------------      ----- ------------  ---------------
   532      4.453173  33 N  s               130      3.509935   8 H  s         
   565      3.060882  35 H  s               491     -3.003701  31 C  pz        
    56     -2.502604   5 C  s                63     -2.514281   5 C  px        
   216     -2.513698  14 H  s               233      2.337520  15 C  px        
   106      2.200253   7 N  s               234     -2.093852  15 C  py        

 Vector   70  Occ=0.000000D+00  E= 5.607898D-02
              MO Center= -1.5D-01, -1.5D+00,  2.9D-01, r^2= 3.8D+01
   Bfn.  Coefficient  Atom+Function         Bfn.  Coefficient  Atom+Function  
  ----- ------------  ---------------      ----- ------------  ---------------
   164      5.193060  10 H  s                63     -3.558666   5 C  px        
   149     -3.419725   9 C  pz               13     -3.283208   2 C  s         
   368      2.908202  22 H  s               147     -2.700099   9 C  px        
   226      2.672683  15 C  s                46     -2.282770   4 H  s         
    56     -2.140474   5 C  s               402     -2.053533  24 H  s         

 Vector   71  Occ=0.000000D+00  E= 6.377387D-02
              MO Center= -4.2D-01,  2.2D-01, -1.4D+00, r^2= 4.2D+01
   Bfn.  Coefficient  Atom+Function         Bfn.  Coefficient  Atom+Function  
  ----- ------------  ---------------      ----- ------------  ---------------
   276      4.806175  17 N  s               300      4.649108  18 H  s         
     3     -4.140368   1 H  s               352      3.620103  21 C  py        
   226     -3.342344  15 C  s               140     -3.177700   9 C  s         
    56     -3.078757   5 C  s                13      2.952936   2 C  s         
   216     -2.754777  14 H  s               174      2.738886  11 C  s         

 Vector   72  Occ=0.000000D+00  E= 6.932823D-02
              MO Center= -5.1D-01, -8.5D-01, -1.2D+00, r^2= 4.7D+01
   Bfn.  Coefficient  Atom+Function         Bfn.  Coefficient  Atom+Function  
  ----- ------------  ---------------      ----- ------------  ---------------
    37      4.113662   3 H  s                56     -3.876590   5 C  s         
   147     -3.792506   9 C  px              198     -3.763020  12 H  s         
   411      3.744274  25 H  s               234     -3.697700  15 C  py        
    46     -3.425985   4 H  s                63     -3.180756   5 C  px        
    13     -2.892938   2 C  s               113     -2.815465   7 N  px        

 Vector   73  Occ=0.000000D+00  E= 7.388859D-02
              MO Center= -1.1D-01, -6.9D-01,  4.8D-01, r^2= 4.2D+01
   Bfn.  Coefficient  Atom+Function         Bfn.  Coefficient  Atom+Function  
  ----- ------------  ---------------      ----- ------------  ---------------
   198     -4.961488  12 H  s               164      4.537349  10 H  s         
   368     -4.266597  22 H  s               352     -4.000035  21 C  py        
   565     -2.986991  35 H  s               207      2.790589  13 H  s         
   182     -2.531273  11 C  py              532     -2.539689  33 N  s         
   149     -2.474241   9 C  pz              174     -2.422068  11 C  s         

 Vector   74  Occ=0.000000D+00  E= 7.536003D-02
              MO Center= -2.7D-01,  2.3D+00, -1.7D+00, r^2= 3.6D+01
   Bfn.  Coefficient  Atom+Function         Bfn.  Coefficient  Atom+Function  
  ----- ------------  ---------------      ----- ------------  ---------------
   472      5.829958  30 H  s               378      4.972235  23 C  s         
   430      4.889987  27 C  s               317      4.302419  19 C  px        
   174     -3.953280  11 C  s               334     -3.304371  20 H  s         
   352     -2.989356  21 C  py              463     -2.999326  29 H  s         
   300     -2.779052  18 H  s                56      2.206098   5 C  s         

 Vector   75  Occ=0.000000D+00  E= 8.254927D-02
              MO Center=  1.3D+00, -1.7D+00, -1.1D+00, r^2= 3.9D+01
   Bfn.  Coefficient  Atom+Function         Bfn.  Coefficient  Atom+Function  
  ----- ------------  ---------------      ----- ------------  ---------------
   216      6.357433  14 H  s               207     -5.305705  13 H  s         
   130      5.062342   8 H  s               174      4.369916  11 C  s         
    56     -4.073139   5 C  s               300      3.688062  18 H  s         
   454     -3.299559  28 H  s                63     -3.178708   5 C  px        
   352      3.041065  21 C  py                3     -2.919950   1 H  s         

 Vector   76  Occ=0.000000D+00  E= 8.393075D-02
              MO Center= -1.3D+00,  2.2D+00, -7.8D-01, r^2= 3.4D+01
   Bfn.  Coefficient  Atom+Function         Bfn.  Coefficient  Atom+Function  
  ----- ------------  ---------------      ----- ------------  ---------------
   300      7.206811  18 H  s               430     -5.531743  27 C  s         
   411     -5.220690  25 H  s               402      4.713426  24 H  s         
   318      4.655614  19 C  py              368      4.390502  22 H  s         
   378     -4.251952  23 C  s               352      3.583083  21 C  py        
   454      3.256256  28 H  s               174      3.186536  11 C  s         

 Vector   77  Occ=0.000000D+00  E= 9.037247D-02
              MO Center= -1.4D+00,  1.1D+00, -1.6D-01, r^2= 3.6D+01
   Bfn.  Coefficient  Atom+Function         Bfn.  Coefficient  Atom+Function  
  ----- ------------  ---------------      ----- ------------  ---------------
   300     11.344550  18 H  s               402     -7.843517  24 H  s         
    56     -6.507398   5 C  s               454      5.223404  28 H  s         
   226     -4.869525  15 C  s               174      4.783980  11 C  s         
   164     -4.530850  10 H  s               420      4.265687  26 H  s         
   149      4.170862   9 C  pz              368     -4.073687  22 H  s         

 Vector   78  Occ=0.000000D+00  E= 9.494907D-02
              MO Center= -1.0D+00,  3.7D-01, -1.1D-02, r^2= 4.0D+01
   Bfn.  Coefficient  Atom+Function         Bfn.  Coefficient  Atom+Function  
  ----- ------------  ---------------      ----- ------------  ---------------
   420      6.618159  26 H  s               334     -4.775841  20 H  s         
   556      4.637485  34 H  s                46     -4.412567   4 H  s         
   454     -4.044320  28 H  s                63     -3.966054   5 C  px        
   411     -3.947320  25 H  s               317      3.884309  19 C  px        
   463      3.680200  29 H  s               226      3.486091  15 C  s         

 Vector   79  Occ=0.000000D+00  E= 1.026008D-01
              MO Center=  8.3D-01,  1.2D+00, -1.6D+00, r^2= 3.9D+01
   Bfn.  Coefficient  Atom+Function         Bfn.  Coefficient  Atom+Function  
  ----- ------------  ---------------      ----- ------------  ---------------
   300     10.921203  18 H  s               334      9.145631  20 H  s         
   234     -6.915433  15 C  py              472      6.233319  30 H  s         
   318     -6.054622  19 C  py              226     -5.464605  15 C  s         
   378      5.450579  23 C  s               463     -5.376640  29 H  s         
    56     -5.239256   5 C  s               368     -4.906496  22 H  s         

 Vector   80  Occ=0.000000D+00  E= 1.053776D-01
              MO Center= -1.9D+00,  6.4D-02,  5.2D-01, r^2= 3.6D+01
   Bfn.  Coefficient  Atom+Function         Bfn.  Coefficient  Atom+Function  
  ----- ------------  ---------------      ----- ------------  ---------------
   420     17.241544  26 H  s               300    -10.370268  18 H  s         
   556     -7.453304  34 H  s               411     -7.101096  25 H  s         
    56      6.329375   5 C  s               472      5.427979  30 H  s         
   106     -4.827101   7 N  s               463     -4.546041  29 H  s         
   386      4.502055  23 C  py              334      4.228895  20 H  s         

 Vector   81  Occ=0.000000D+00  E= 1.112698D-01
              MO Center= -6.1D-01,  1.3D+00, -2.5D-01, r^2= 3.6D+01
   Bfn.  Coefficient  Atom+Function         Bfn.  Coefficient  Atom+Function  
  ----- ------------  ---------------      ----- ------------  ---------------
   300     18.574177  18 H  s               420    -10.670429  26 H  s         
   556     -8.699005  34 H  s               454     -6.682053  28 H  s         
   463      6.329396  29 H  s               368     -6.179057  22 H  s         
   482      5.297042  31 C  s               353     -5.178459  21 C  pz        
   226     -4.469935  15 C  s               411      4.480956  25 H  s         

 Vector   82  Occ=0.000000D+00  E= 1.195963D-01
              MO Center= -5.3D-01, -1.6D+00,  5.2D-01, r^2= 3.0D+01
   Bfn.  Coefficient  Atom+Function         Bfn.  Coefficient  Atom+Function  
  ----- ------------  ---------------      ----- ------------  ---------------
   300     11.248652  18 H  s               147      7.844466   9 C  px        
   318      6.571917  19 C  py              430     -5.914179  27 C  s         
   317     -4.951178  19 C  px              106      4.896738   7 N  s         
    56      4.746667   5 C  s               378     -4.659670  23 C  s         
   234      4.541359  15 C  py              556      4.316244  34 H  s         

 Vector   83  Occ=0.000000D+00  E= 1.266538D-01
              MO Center=  1.3D+00,  2.0D-01, -4.3D-01, r^2= 3.1D+01
   Bfn.  Coefficient  Atom+Function         Bfn.  Coefficient  Atom+Function  
  ----- ------------  ---------------      ----- ------------  ---------------
   174     12.190439  11 C  s               430    -12.079580  27 C  s         
   482      9.621854  31 C  s               234      7.108919  15 C  py        
    56     -6.455957   5 C  s               226     -5.762003  15 C  s         
   352      5.009069  21 C  py              284     -4.710703  17 N  py        
   149      4.596660   9 C  pz              378      4.393277  23 C  s         

 Vector   84  Occ=0.000000D+00  E= 1.276789D-01
              MO Center= -1.0D+00, -3.5D+00, -1.0D+00, r^2= 2.8D+01
   Bfn.  Coefficient  Atom+Function         Bfn.  Coefficient  Atom+Function  
  ----- ------------  ---------------      ----- ------------  ---------------
   226    -14.071506  15 C  s               234     13.812481  15 C  py        
   174     13.417577  11 C  s                56    -10.923422   5 C  s         
   106     10.918671   7 N  s               140     -8.801603   9 C  s         
   148      8.521680   9 C  py              310     -7.469898  19 C  s         
   318      6.954960  19 C  py               13      6.663535   2 C  s         

 Vector   85  Occ=0.000000D+00  E= 1.432699D-01
              MO Center=  1.5D-01, -1.9D+00,  1.3D-01, r^2= 3.0D+01
   Bfn.  Coefficient  Atom+Function         Bfn.  Coefficient  Atom+Function  
  ----- ------------  ---------------      ----- ------------  ---------------
   430    -10.421741  27 C  s                63     10.099935   5 C  px        
   106     -8.853315   7 N  s               276      6.062948  17 N  s         
   140     -5.957749   9 C  s               482      5.708072  31 C  s         
   234     -5.010504  15 C  py              352      4.899792  21 C  py        
   164     -4.850250  10 H  s               233      4.788366  15 C  px        

 Vector   86  Occ=0.000000D+00  E= 1.441720D-01
              MO Center= -6.5D-01, -5.9D-01,  1.8D-01, r^2= 2.5D+01
   Bfn.  Coefficient  Atom+Function         Bfn.  Coefficient  Atom+Function  
  ----- ------------  ---------------      ----- ------------  ---------------
   378    -10.188503  23 C  s               226      9.927196  15 C  s         
    13     -8.406624   2 C  s               351     -7.964638  21 C  px        
    63     -7.849980   5 C  px              140      7.008496   9 C  s         
   284      5.680250  17 N  py              556      5.028588  34 H  s         
   482     -4.931483  31 C  s               319     -4.794274  19 C  pz        

[...]
   430     17.304853  27 C  s               174    -14.493222  11 C  s         
   276    -13.405575  17 N  s               352    -13.422121  21 C  py        
   226      9.941958  15 C  s               300     -8.944595  18 H  s         
   140      8.288708   9 C  s               173     -8.016171  11 C  s         
    56      7.644194   5 C  s               482     -7.302589  31 C  s         

 Vector  161  Occ=0.000000D+00  E= 4.418427D-01
              MO Center=  4.2D-01, -7.1D-01, -2.2D-01, r^2= 2.2D+01
   Bfn.  Coefficient  Atom+Function         Bfn.  Coefficient  Atom+Function  
  ----- ------------  ---------------      ----- ------------  ---------------
   482    -14.216360  31 C  s               147     13.480496   9 C  px        
   174    -11.931913  11 C  s               318     11.982478  19 C  py        
   300     11.371118  18 H  s               234     10.617542  15 C  py        
   430      8.900014  27 C  s               106      8.756529   7 N  s         
   378     -8.111367  23 C  s                56      7.785555   5 C  s         

 Vector  162  Occ=0.000000D+00  E= 4.428316D-01
              MO Center= -7.8D-01, -1.0D+00, -1.0D-01, r^2= 2.1D+01
   Bfn.  Coefficient  Atom+Function         Bfn.  Coefficient  Atom+Function  
  ----- ------------  ---------------      ----- ------------  ---------------
   482     15.776207  31 C  s               532    -14.422833  33 N  s         
    13    -13.065348   2 C  s               174    -11.779162  11 C  s         
   310     10.183238  19 C  s                36      7.747896   3 H  s         
   318     -7.785139  19 C  py               12     -6.904696   2 C  s         
   106     -6.848571   7 N  s               300      6.725372  18 H  s         

 Vector  163  Occ=0.000000D+00  E= 4.449517D-01
              MO Center= -1.1D-02, -1.6D-01,  7.5D-02, r^2= 2.0D+01
   Bfn.  Coefficient  Atom+Function         Bfn.  Coefficient  Atom+Function  
  ----- ------------  ---------------      ----- ------------  ---------------
   234     18.552995  15 C  py              276    -14.877835  17 N  s         
   174      9.772710  11 C  s               226      7.956258  15 C  s         
   310     -7.697284  19 C  s               233     -7.355068  15 C  px        
   140      6.022653   9 C  s               300     -6.025487  18 H  s         
    12      5.961613   2 C  s                56      5.801876   5 C  s         

 Vector  164  Occ=0.000000D+00  E= 4.476841D-01
              MO Center= -8.1D-01, -6.2D-01, -1.7D-01, r^2= 2.1D+01
   Bfn.  Coefficient  Atom+Function         Bfn.  Coefficient  Atom+Function  
  ----- ------------  ---------------      ----- ------------  ---------------
   174     12.409647  11 C  s                56     -9.051556   5 C  s         
   429     -8.184800  27 C  s               532      7.262196  33 N  s         
   173      6.256100  11 C  s               430     -6.156839  27 C  s         
   197     -5.481033  12 H  s               319     -5.452617  19 C  pz        
   462      5.263621  29 H  s               378     -5.228900  23 C  s         

 Vector  165  Occ=0.000000D+00  E= 4.513756D-01
              MO Center= -6.4D-01,  4.7D-01, -2.3D-01, r^2= 1.9D+01
   Bfn.  Coefficient  Atom+Function         Bfn.  Coefficient  Atom+Function  
  ----- ------------  ---------------      ----- ------------  ---------------
   226     13.394424  15 C  s               276    -12.524251  17 N  s         
   140     10.501143   9 C  s               378     -9.644406  23 C  s         
   532      8.593646  33 N  s               482     -8.526844  31 C  s         
   377     -8.358851  23 C  s               300     -7.371330  18 H  s         
   410      7.161323  25 H  s               430      5.996386  27 C  s         

 Vector  166  Occ=0.000000D+00  E= 4.591953D-01
              MO Center=  3.5D-01, -2.0D-01,  5.0D-01, r^2= 2.0D+01
   Bfn.  Coefficient  Atom+Function         Bfn.  Coefficient  Atom+Function  
  ----- ------------  ---------------      ----- ------------  ---------------
   106     11.226452   7 N  s               319     10.886376  19 C  pz        
   378     10.215699  23 C  s                13      9.470174   2 C  s         
   226     -9.216991  15 C  s               113      8.891656   7 N  px        
   482     -8.256669  31 C  s               430      7.722589  27 C  s         
   284      7.627216  17 N  py              276      7.585865  17 N  s         

 Vector  167  Occ=0.000000D+00  E= 4.602364D-01
              MO Center= -3.9D-01,  4.6D-01,  4.2D-02, r^2= 2.0D+01
   Bfn.  Coefficient  Atom+Function         Bfn.  Coefficient  Atom+Function  
  ----- ------------  ---------------      ----- ------------  ---------------
   318     16.737982  19 C  py              234     15.818828  15 C  py        
   532    -14.959052  33 N  s               174     13.945632  11 C  s         
   378     -8.011788  23 C  s               148      7.732662   9 C  py        
    13      7.669789   2 C  s               319      7.091908  19 C  pz        
   490     -7.126404  31 C  py              420      6.863144  26 H  s         

 Vector  168  Occ=0.000000D+00  E= 4.652209D-01
              MO Center=  1.7D-01, -6.3D-01, -7.6D-01, r^2= 2.1D+01
   Bfn.  Coefficient  Atom+Function         Bfn.  Coefficient  Atom+Function  
  ----- ------------  ---------------      ----- ------------  ---------------
   174     12.402750  11 C  s                13     11.827383   2 C  s         
   140     -9.361209   9 C  s               276      8.716582  17 N  s         
   226     -8.058313  15 C  s                63      7.485461   5 C  px        
   106     -7.272312   7 N  s               378      7.161785  23 C  s         
   482     -6.572485  31 C  s               532      6.496435  33 N  s         

 Vector  169  Occ=0.000000D+00  E= 4.706286D-01
              MO Center= -2.1D-01, -3.9D-01, -5.3D-01, r^2= 2.0D+01
   Bfn.  Coefficient  Atom+Function         Bfn.  Coefficient  Atom+Function  
  ----- ------------  ---------------      ----- ------------  ---------------
   276    -11.002564  17 N  s               113     10.324114   7 N  px        
    13     10.234536   2 C  s               532     -8.638002  33 N  s         
   234      7.709853  15 C  py              482      7.681339  31 C  s         
    56      7.256130   5 C  s               226     -6.805892  15 C  s         
   319      6.652883  19 C  pz               63      5.908873   5 C  px        

 Vector  170  Occ=0.000000D+00  E= 4.755217D-01
              MO Center= -5.7D-01, -5.4D-01, -4.7D-01, r^2= 2.1D+01
   Bfn.  Coefficient  Atom+Function         Bfn.  Coefficient  Atom+Function  
  ----- ------------  ---------------      ----- ------------  ---------------
   174      7.769518  11 C  s                56     -6.629630   5 C  s         
   113     -6.317484   7 N  px              283      6.306077  17 N  px        
   378      5.958524  23 C  s               401     -5.591976  24 H  s         
   319     -5.333761  19 C  pz              532      5.025544  33 N  s         
   317     -4.409187  19 C  px              463     -4.289386  29 H  s         

 Vector  171  Occ=0.000000D+00  E= 4.800024D-01
              MO Center= -3.8D-01, -8.1D-01, -3.8D-01, r^2= 1.9D+01
   Bfn.  Coefficient  Atom+Function         Bfn.  Coefficient  Atom+Function  
  ----- ------------  ---------------      ----- ------------  ---------------
    56     13.680944   5 C  s               174    -13.726974  11 C  s         
    12     11.977147   2 C  s               173     -8.020478  11 C  s         
     2     -7.936567   1 H  s               206      7.842154  13 H  s         
   377     -7.667349  23 C  s               532      7.602456  33 N  s         
   367      7.196425  22 H  s               419      7.112009  26 H  s         

 Vector  172  Occ=0.000000D+00  E= 4.832638D-01
              MO Center= -2.6D-01,  5.4D-01,  1.7D-02, r^2= 2.1D+01
   Bfn.  Coefficient  Atom+Function         Bfn.  Coefficient  Atom+Function  
  ----- ------------  ---------------      ----- ------------  ---------------
   482     16.519930  31 C  s               430    -10.555868  27 C  s         
   317    -10.147810  19 C  px              319     -9.360985  19 C  pz        
   276     -9.306370  17 N  s               377      8.988554  23 C  s         
   420     -8.440454  26 H  s               419     -7.712841  26 H  s         
   283      7.481908  17 N  px              174      7.063998  11 C  s         

 Vector  173  Occ=0.000000D+00  E= 4.866763D-01
              MO Center= -4.7D-01,  7.9D-01, -9.1D-02, r^2= 1.8D+01
   Bfn.  Coefficient  Atom+Function         Bfn.  Coefficient  Atom+Function  
  ----- ------------  ---------------      ----- ------------  ---------------
   276     22.937303  17 N  s               174     16.565583  11 C  s         
    56    -11.834103   5 C  s               140    -11.082190   9 C  s         
   226     -9.327305  15 C  s               482     -7.697646  31 C  s         
   430     -7.314337  27 C  s                13      7.268985   2 C  s         
   318      7.256076  19 C  py              453      7.147665  28 H  s         

 Vector  174  Occ=0.000000D+00  E= 4.878997D-01
              MO Center=  1.0D-01,  1.1D+00, -8.0D-01, r^2= 2.1D+01
   Bfn.  Coefficient  Atom+Function         Bfn.  Coefficient  Atom+Function  
  ----- ------------  ---------------      ----- ------------  ---------------
   430     20.683930  27 C  s               482    -18.823764  31 C  s         
   352    -11.910994  21 C  py              318      9.539342  19 C  py        
   471     -7.938909  30 H  s                13      7.603575   2 C  s         
   147      7.050810   9 C  px              113      6.801517   7 N  px        
   310     -6.832623  19 C  s                63      6.151576   5 C  px        

 Vector  175  Occ=0.000000D+00  E= 4.959083D-01
              MO Center= -9.4D-02,  6.9D-02, -3.2D-01, r^2= 2.1D+01
   Bfn.  Coefficient  Atom+Function         Bfn.  Coefficient  Atom+Function  
  ----- ------------  ---------------      ----- ------------  ---------------
   300     18.069630  18 H  s                56    -15.656609   5 C  s         
   226    -14.829795  15 C  s               234     14.167698  15 C  py        
   106     11.876011   7 N  s               482     10.644391  31 C  s         
   149      9.460780   9 C  pz              174      9.152659  11 C  s         
   284     -8.764290  17 N  py              352      8.500707  21 C  py        

 Vector  176  Occ=0.000000D+00  E= 4.998216D-01
              MO Center= -7.0D-01,  1.0D+00, -4.4D-01, r^2= 1.9D+01
   Bfn.  Coefficient  Atom+Function         Bfn.  Coefficient  Atom+Function  
  ----- ------------  ---------------      ----- ------------  ---------------
   378     15.991420  23 C  s               226    -14.946209  15 C  s         
   174     13.830171  11 C  s                13     12.256792   2 C  s         
   140    -11.142876   9 C  s                63      8.476668   5 C  px        
   353     -7.445297  21 C  pz              462      7.183254  29 H  s         
    12      6.661399   2 C  s               317      5.988504  19 C  px        

 Vector  177  Occ=0.000000D+00  E= 5.025736D-01
              MO Center= -1.4D-02, -2.0D-01, -5.8D-01, r^2= 2.1D+01
   Bfn.  Coefficient  Atom+Function         Bfn.  Coefficient  Atom+Function  
  ----- ------------  ---------------      ----- ------------  ---------------
   430     12.045116  27 C  s               482    -11.997445  31 C  s         
    56    -10.809151   5 C  s               378     10.279445  23 C  s         
   318     -9.258451  19 C  py              234     -8.589447  15 C  py        
   147     -8.049899   9 C  px              343      6.893424  21 C  s         
   215     -5.836353  14 H  s               317      5.675030  19 C  px        


 center of mass
 --------------
 x =   0.07005408 y =   0.01664177 z =   0.08176126

 moments of inertia (a.u.)
 ------------------
        5060.221399928958          -0.000000000000           0.000000000000
          -0.000000000000        2517.994080274336          -0.000000000001
           0.000000000000          -0.000000000001        5814.692654243436

  Mulliken analysis of the total density
  --------------------------------------

    Atom       Charge   Shell Charges
 -----------   ------   -------------------------------------------------------
    1 H    1     0.87   0.76  0.13  0.01  0.03 -0.07
    2 C    6     6.35   2.01  0.66  0.29  0.15  2.07  1.02 -0.02  0.06  0.11
    3 H    1     0.83   0.76  0.09  0.01  0.03 -0.07
    4 H    1     0.93   0.76  0.19  0.01  0.03 -0.06
    5 C    6     5.28   2.01  0.68  0.10  0.07  1.90  0.41 -0.10  0.24 -0.02
    6 O    8     8.75   2.01  0.82  0.99  0.16  2.80  1.85  0.13  0.02 -0.01
    7 N    7     7.45   2.01  0.72  0.81 -0.18  2.45  1.44  0.11  0.05  0.04
    8 H    1     0.97   0.77  0.21 -0.03  0.05 -0.04
    9 C    6     6.46   2.01  0.66  0.07  0.08  1.99  1.40 -0.02  0.14  0.14
   10 H    1     1.08   0.78  0.23  0.02  0.03  0.02
   11 C    6     5.62   2.01  0.66  0.21  0.11  2.04  0.58 -0.05  0.07 -0.01
   12 H    1     1.02   0.77  0.29  0.01  0.03 -0.08
   13 H    1     0.95   0.77  0.20  0.03  0.03 -0.08
   14 H    1     0.94   0.76  0.23 -0.01  0.03 -0.07
   15 C    6     4.83   2.01  0.68  0.08 -0.00  1.89  0.11  0.12  0.24 -0.28
   16 O    8     8.82   2.01  0.82  1.04  0.18  2.79  1.85  0.13  0.01 -0.01
   17 N    7     7.42   2.01  0.72  0.83 -0.14  2.45  1.42  0.05  0.05  0.03
   18 H    1     0.91   0.77  0.27 -0.07  0.06 -0.11
   19 C    6     6.23   2.01  0.66  0.12  0.01  1.99  1.06  0.26  0.14 -0.02
   20 H    1     1.23   0.78  0.43 -0.01  0.03  0.01
   21 C    6     6.99   2.01  0.66  0.12  0.13  2.01  1.42 -0.05  0.12  0.57
   22 H    1     1.10   0.80  0.31  0.04  0.03 -0.07
   23 C    6     5.29   2.01  0.66  0.19 -0.10  2.04  0.50 -0.03  0.07 -0.06
   24 H    1     0.95   0.77  0.20  0.00  0.03 -0.05
   25 H    1     1.04   0.78  0.34 -0.01  0.03 -0.09
   26 H    1     1.04   0.79  0.25  0.02  0.03 -0.04
   27 C    6     5.23   2.01  0.66  0.09 -0.06  2.04  0.55 -0.07  0.07 -0.06
   28 H    1     0.91   0.77  0.16  0.00  0.03 -0.05
   29 H    1     1.04   0.78  0.29  0.01  0.03 -0.07
   30 H    1     0.98   0.78  0.25 -0.01  0.03 -0.07
   31 C    6     4.58   2.01  0.68  0.09  0.01  1.89 -0.21  0.02  0.24 -0.16
   32 O    8     8.85   2.01  0.82  1.05  0.19  2.79  1.84  0.15  0.01  0.00
   33 N    7     7.13   2.01  0.72  0.79 -0.22  2.46  1.25  0.12  0.04 -0.03
   34 H    1     0.88   0.73  0.23 -0.01  0.06 -0.13
   35 H    1     1.04   0.76  0.25 -0.00  0.05 -0.02

       Multipole analysis of the density wrt the origin
       ------------------------------------------------

     L   x y z        total         open         nuclear
     -   - - -        -----         ----         -------
     0   0 0 0     -0.000000      0.000000    124.000000

     1   1 0 0     -1.823588      0.000000     -0.000000
     1   0 1 0     -3.078388      0.000000     -0.000000
     1   0 0 1     -1.721150      0.000000     -0.000000

     2   2 0 0    -78.159671      0.000000    936.056398
     2   1 1 0     -2.399924      0.000000    -21.653403
     2   1 0 1     -1.022043      0.000000      2.171119
     2   0 2 0    -70.220276      0.000000   2356.816444
     2   0 1 1     -1.354306      0.000000    -18.467229
     2   0 0 2    -71.749205      0.000000    511.288041


 Task  times  cpu:    10767.4s     wall:    10807.5s


                                NWChem Input Module
                                -------------------


 Summary of allocated global arrays
-----------------------------------
  No active global arrays


MA_summarize_allocated_blocks: starting scan ...
MA_summarize_allocated_blocks: scan completed: 0 heap blocks, 0 stack blocks
MA usage statistics:

	allocation statistics:
					      heap	     stack
					      ----	     -----
	current number of blocks	         0	         0
	maximum number of blocks	        16	        14
	current total bytes		         0	         0
	maximum total bytes		    121392	  26828008
	maximum total K-bytes		       122	     26829
	maximum total M-bytes		         1	        27


                                     CITATION
                                     --------
                Please cite the following reference when publishing
                           results obtained with NWChem:

          E. Apra, E. J. Bylaska, W. A. de Jong, N. Govind, K. Kowalski,
       T. P. Straatsma, M. Valiev, H. J. J. van Dam, Y. Alexeev, J. Anchell,
       V. Anisimov, F. W. Aquino, R. Atta-Fynn, J. Autschbach, N. P. Bauman,
     J. C. Becca, D. E. Bernholdt, K. Bhaskaran-Nair, S. Bogatko, P. Borowski,
         J. Boschen, J. Brabec, A. Bruner, E. Cauet, Y. Chen, G. N. Chuev,
      C. J. Cramer, J. Daily, M. J. O. Deegan, T. H. Dunning Jr., M. Dupuis,
   K. G. Dyall, G. I. Fann, S. A. Fischer, A. Fonari, H. Fruchtl, L. Gagliardi,
      J. Garza, N. Gawande, S. Ghosh, K. Glaesemann, A. W. Gotz, J. Hammond,
       V. Helms, E. D. Hermes, K. Hirao, S. Hirata, M. Jacquelin, L. Jensen,
   B. G. Johnson, H. Jonsson, R. A. Kendall, M. Klemm, R. Kobayashi, V. Konkov,
      S. Krishnamoorthy, M. Krishnan, Z. Lin, R. D. Lins, R. J. Littlefield,
      A. J. Logsdail, K. Lopata, W. Ma, A. V. Marenich, J. Martin del Campo,
   D. Mejia-Rodriguez, J. E. Moore, J. M. Mullin, T. Nakajima, D. R. Nascimento,
    J. A. Nichols, P. J. Nichols, J. Nieplocha, A. Otero-de-la-Roza, B. Palmer,
    A. Panyala, T. Pirojsirikul, B. Peng, R. Peverati, J. Pittner, L. Pollack,
   R. M. Richard, P. Sadayappan, G. C. Schatz, W. A. Shelton, D. W. Silverstein,
   D. M. A. Smith, T. A. Soares, D. Song, M. Swart, H. L. Taylor, G. S. Thomas,
            V. Tipparaju, D. G. Truhlar, K. Tsemekhman, T. Van Voorhis,
      A. Vazquez-Mayagoitia, P. Verma, O. Villa, A. Vishnu, K. D. Vogiatzis,
        D. Wang, J. H. Weare, M. J. Williamson, T. L. Windus, K. Wolinski,
        A. T. Wong, Q. Wu, C. Yang, Q. Yu, M. Zacharias, Z. Zhang, Y. Zhao,
                                and R. J. Harrison
                        "NWChem: Past, present, and future
                         J. Chem. Phys. 152, 184102 (2020)
                               doi:10.1063/5.0004997

                                      AUTHORS
                                      -------
  E. Apra, E. J. Bylaska, N. Govind, K. Kowalski, M. Valiev, D. Mejia-Rodriguez,
       A. Kunitsa, N. P. Bauman, A. Panyala, W. A. de Jong, T. P. Straatsma,
   H. J. J. van Dam, D. Wang, T. L. Windus, J. Hammond, J. Autschbach, A. Woods,
    K. Bhaskaran-Nair, J. Brabec, K. Lopata, S. A. Fischer, S. Krishnamoorthy,
     M. Jacquelin, W. Ma, M. Klemm, O. Villa, Y. Chen, V. Anisimov, F. Aquino,
     S. Hirata, M. T. Hackler, E. Hermes, L. Jensen, J. E. Moore, J. C. Becca,
      V. Konjkov, T. Risthaus, M. Malagoli, A. Marenich, A. Otero-de-la-Roza,
        J. Mullin, P. Nichols, R. Peverati, J. Pittner, Y. Zhao, P.-D. Fan,
        A. Fonari, M. J. Williamson, R. J. Harrison, J. R. Rehr, M. Dupuis,
     D. Silverstein, D. M. A. Smith, J. Nieplocha, V. Tipparaju, M. Krishnan,
     B. E. Van Kuiken, A. Vazquez-Mayagoitia, M. Swart, Q. Wu, T. Van Voorhis,
     A. A. Auer, M. Nooijen, L. D. Crosby, E. Brown, G. Cisneros, G. I. Fann,
   H. Fruchtl, J. Garza, K. Hirao, R. A. Kendall, J. A. Nichols, K. Tsemekhman,
    K. Wolinski, J. Anchell, D. E. Bernholdt, P. Borowski, T. Clark, D. Clerc,
   H. Dachsel, M. J. O. Deegan, K. Dyall, D. Elwood, E. Glendening, M. Gutowski,
   A. C. Hess, J. Jaffe, B. G. Johnson, J. Ju, R. Kobayashi, R. Kutteh, Z. Lin,
   R. Littlefield, X. Long, B. Meng, T. Nakajima, S. Niu, L. Pollack, M. Rosing,
   K. Glaesemann, G. Sandrone, M. Stave, H. Taylor, G. Thomas, J. H. van Lenthe,
                               A. T. Wong, Z. Zhang.

 Total times  cpu:    10767.4s     wall:    10808.0s
