export TMOUT=5400
export TMPDIR=/tmp
export PTMPDIR=/tmp/ptmp
 argument  1 = ALA_SER_5.nw
                                         
                                         


             Northwest Computational Chemistry Package (NWChem) 7.2.0
             --------------------------------------------------------


                    Environmental Molecular Sciences Laboratory
                       Pacific Northwest National Laboratory
                                Richland, WA 99352

                              Copyright (c) 1994-2022
                       Pacific Northwest National Laboratory
                            Battelle Memorial Institute

             NWChem is an open-source computational chemistry package
                        distributed under the terms of the
                      Educational Community License (ECL) 2.0
             A copy of the license is included with this distribution
                              in the LICENSE.TXT file

                                  ACKNOWLEDGMENT
                                  --------------

            This software and its documentation were developed at the
            EMSL at Pacific Northwest National Laboratory, a multiprogram
            national laboratory, operated for the U.S. Department of Energy
            by Battelle under Contract Number DE-AC05-76RL01830. Support
            for this work was provided by the Department of Energy Office
            of Biological and Environmental Research, Office of Basic
            Energy Sciences, and the Office of Advanced Scientific Computing.


           Job information
           ---------------

    hostname        = nova18-41
    program         = /opt/rit/el9/20230413/app/linux-rhel9-x86_64_v3/gcc-11.2.1/nwchem-7.2.0-oxtctbuhfuzyfaoziquq6bki22grib3g/bin/nwchem
    date            = Mon Jun 30 14:07:12 2025

    compiled        = Wed_May_17_23:46:39_2023
    source          = /tmp/root/spack-stage/spack-stage-nwchem-7.2.0-oxtctbuhfuzyfaoziquq6bki22grib3g/spack-src
    nwchem branch   = 7.2.0
    nwchem revision = d0d141fd
    ga revision     = 5.8.0
    use scalapack   = T
    input           = ALA_SER_5.nw
    prefix          = ALA_SER_5.
    data base       = ./ALA_SER_5.db
    status          = startup
    nproc           =        8
    time left       =     -1s



           Memory information
           ------------------

    heap     =   26214398 doubles =    200.0 Mbytes
    stack    =   26214395 doubles =    200.0 Mbytes
    global   =   52428800 doubles =    400.0 Mbytes (distinct from heap & stack)
    total    =  104857593 doubles =    800.0 Mbytes
    verify   = yes
    hardfail = no 


           Directory information
           ---------------------

  0 permanent = .
  0 scratch   = .




                                NWChem Input Module
                                -------------------



 Scaling coordinates for geometry "geometry" by  1.889725989
 (inverse scale =  0.529177249)

 C1  symmetry detected

          ------
          auto-z
          ------
  no constraints, skipping    0.0000000000000000     
  no constraints, skipping    0.0000000000000000     


                             Geometry "geometry" -> ""
                             -------------------------

 Output coordinates in angstroms (scale by  1.889725989 to convert to a.u.)

  No.       Tag          Charge          X              Y              Z
 ---- ---------------- ---------- -------------- -------------- --------------
    1 H                    1.0000    -1.85910516    -4.26634645     1.31334405
    2 C                    6.0000    -2.06162651    -3.19755123     1.36468482
    3 H                    1.0000    -1.88054940    -2.83103832     2.37348825
    4 H                    1.0000    -3.10057962    -3.01326543     1.09209504
    5 C                    6.0000    -1.16339006    -2.46869807     0.39409718
    6 O                    8.0000    -1.65632398    -1.80579671    -0.50815773
    7 N                    7.0000     0.15003748    -2.59829986     0.59566972
    8 H                    1.0000     0.41972064    -3.17947257     1.37213303
    9 C                    6.0000     1.25725389    -2.00410856    -0.17813744
   10 H                    1.0000     2.17772156    -2.30555484     0.32479040
   11 C                    6.0000     1.30465206    -2.64594361    -1.57253881
   12 H                    1.0000     1.34551417    -3.73227753    -1.48387713
   13 H                    1.0000     0.42215451    -2.36508578    -2.14888589
   14 H                    1.0000     2.19451652    -2.30152003    -2.10183991
   15 C                    6.0000     1.32564609    -0.45889456    -0.23938439
   16 O                    8.0000     2.41278068     0.09597088    -0.10412268
   17 N                    7.0000     0.20052721     0.24220264    -0.39960678
   18 H                    1.0000    -0.65224439    -0.29536369    -0.52113054
   19 C                    6.0000     0.09186876     1.70814893    -0.49627544
   20 H                    1.0000     0.89705438     2.05967207    -1.14235021
   21 C                    6.0000    -1.23191101     2.06494317    -1.18868137
   22 H                    1.0000    -1.27698567     1.56920572    -2.15923104
   23 H                    1.0000    -2.06919724     1.72237527    -0.57847239
   24 O                    8.0000    -1.33117899     3.45999987    -1.37979306
   25 H                    1.0000    -1.34337976     3.85966622    -0.49650661
   26 C                    6.0000     0.26377649     2.43259587     0.85683186
   27 O                    8.0000    -0.56001732     3.24858222     1.26169237
   28 N                    7.0000     1.31477763     2.13211862     1.60594067
   29 H                    1.0000     1.43122763     2.60121572     2.48769365
   30 H                    1.0000     1.99703421     1.47263817     1.25419430

      Atomic Mass 
      ----------- 

      H                  1.007825
      C                 12.000000
      O                 15.994910
      N                 14.003070


 Effective nuclear repulsion energy (a.u.)    1082.0359244183

            Nuclear Dipole moment (a.u.) 
            ----------------------------
        X                 Y               Z
 ---------------- ---------------- ----------------
    -0.0000000000     0.0000000000     0.0000000000



                                Z-matrix (autoz)
                                -------- 

 Units are Angstrom for bonds and degrees for angles

      Type          Name      I     J     K     L     M      Value
      ----------- --------  ----- ----- ----- ----- ----- ----------
    1 Stretch                  1     2                       1.08902
    2 Stretch                  2     3                       1.08849
    3 Stretch                  2     4                       1.08981
    4 Stretch                  2     5                       1.51000
    5 Stretch                  5     6                       1.22331
    6 Stretch                  5     7                       1.33511
    7 Stretch                  7     8                       1.00667
    8 Stretch                  7     9                       1.47573
    9 Stretch                  9    10                       1.09136
   10 Stretch                  9    11                       1.53576
   11 Stretch                  9    15                       1.54794
   12 Stretch                 11    12                       1.09071
   13 Stretch                 11    13                       1.09081
   14 Stretch                 11    14                       1.09117
   15 Stretch                 15    16                       1.22802
   16 Stretch                 15    17                       1.33533
   17 Stretch                 17    18                       1.01536
   18 Stretch                 17    19                       1.47314
   19 Stretch                 19    20                       1.09055
   20 Stretch                 19    21                       1.53594
   21 Stretch                 19    26                       1.54443
   22 Stretch                 21    22                       1.09076
   23 Stretch                 21    23                       1.09122
   24 Stretch                 21    24                       1.41158
   25 Stretch                 24    25                       0.96958
   26 Stretch                 26    27                       1.22816
   27 Stretch                 26    28                       1.32516
   28 Stretch                 28    29                       1.00554
   29 Stretch                 28    30                       1.01199
   30 Bend                     1     2     3               110.07311
   31 Bend                     1     2     4               109.35699
   32 Bend                     1     2     5               109.43834
   33 Bend                     2     5     6               119.73196
   34 Bend                     2     5     7               116.18675
   35 Bend                     3     2     4               109.47949
   36 Bend                     3     2     5               109.52582
   37 Bend                     4     2     5               108.94758
   38 Bend                     5     7     8               115.85144
   39 Bend                     5     7     9               128.30509
   40 Bend                     6     5     7               124.08096
   41 Bend                     7     9    10               106.25714
   42 Bend                     7     9    11               109.32787
   43 Bend                     7     9    15               117.11843
   44 Bend                     8     7     9               115.84269
   45 Bend                     9    11    12               110.09636
   46 Bend                     9    11    13               110.31364
   47 Bend                     9    11    14               109.49237
   48 Bend                     9    15    16               119.06476
   49 Bend                     9    15    17               119.44799
   50 Bend                    10     9    11               106.07789
   51 Bend                    10     9    15               104.87401
   52 Bend                    11     9    15               112.32767
   53 Bend                    12    11    13               109.25075
   54 Bend                    12    11    14               108.86011
   55 Bend                    13    11    14               108.79646
   56 Bend                    15    17    18               116.36216
   57 Bend                    15    17    19               126.33422
   58 Bend                    16    15    17               121.45964
   59 Bend                    17    19    20               107.76881
   60 Bend                    17    19    21               108.92406
   61 Bend                    17    19    26               113.64550
   62 Bend                    18    17    19               117.19649
   63 Bend                    19    21    22               109.33921
   64 Bend                    19    21    23               109.65121
   65 Bend                    19    21    24               110.56198
   66 Bend                    19    26    27               121.72200
   67 Bend                    19    26    28               118.50176
   68 Bend                    20    19    21               107.12132
   69 Bend                    20    19    26               106.59823
   70 Bend                    21    19    26               112.45300
   71 Bend                    21    24    25               106.55453
   72 Bend                    22    21    23               108.85572
   73 Bend                    22    21    24               109.01372
   74 Bend                    23    21    24               109.39062
   75 Bend                    26    28    29               118.80146
   76 Bend                    26    28    30               119.07642
   77 Bend                    27    26    28               119.75446
   78 Bend                    29    28    30               122.05487
   79 Torsion                  1     2     5     6         119.79939
   80 Torsion                  1     2     5     7         -60.40169
   81 Torsion                  2     5     7     8           0.63299
   82 Torsion                  2     5     7     9        -179.70404
   83 Torsion                  3     2     5     6        -119.44858
   84 Torsion                  3     2     5     7          60.35034
   85 Torsion                  4     2     5     6           0.27600
   86 Torsion                  4     2     5     7        -179.92507
   87 Torsion                  5     7     9    10         177.41422
   88 Torsion                  5     7     9    11         -68.50730
   89 Torsion                  5     7     9    15          60.68637
   90 Torsion                  6     5     7     8        -179.57782
   91 Torsion                  6     5     7     9           0.08514
   92 Torsion                  7     9    11    12         -53.32765
   93 Torsion                  7     9    11    13          67.32297
   94 Torsion                  7     9    11    14        -172.97449
   95 Torsion                  7     9    15    16         136.78024
   96 Torsion                  7     9    15    17         -41.33652
   97 Torsion                  8     7     9    10          -2.92279
   98 Torsion                  8     7     9    11         111.15569
   99 Torsion                  8     7     9    15        -119.65064
  100 Torsion                  9    15    17    18          -2.99385
  101 Torsion                  9    15    17    19        -179.10459
  102 Torsion                 10     9    11    12          60.86680
  103 Torsion                 10     9    11    13        -178.48258
  104 Torsion                 10     9    11    14         -58.78004
  105 Torsion                 10     9    15    16          19.29960
  106 Torsion                 10     9    15    17        -158.81716
  107 Torsion                 11     9    15    16         -95.46225
  108 Torsion                 11     9    15    17          86.42099
  109 Torsion                 12    11     9    15         174.89364
  110 Torsion                 13    11     9    15         -64.45574
  111 Torsion                 14    11     9    15          55.24680
  112 Torsion                 15    17    19    20          42.83121
  113 Torsion                 15    17    19    21         158.72329
  114 Torsion                 15    17    19    26         -75.05852
  115 Torsion                 16    15    17    18         178.93591
  116 Torsion                 16    15    17    19           2.82517
  117 Torsion                 17    19    21    22         -56.06882
  118 Torsion                 17    19    21    23          63.20746
  119 Torsion                 17    19    21    24        -176.09682
  120 Torsion                 17    19    26    27        -127.84965
  121 Torsion                 17    19    26    28          50.44782
  122 Torsion                 18    17    19    20        -133.25080
  123 Torsion                 18    17    19    21         -17.35872
  124 Torsion                 18    17    19    26         108.85947
  125 Torsion                 19    21    24    25         -63.23577
  126 Torsion                 19    26    28    29         179.98786
  127 Torsion                 19    26    28    30           2.90787
  128 Torsion                 20    19    21    22          60.23861
  129 Torsion                 20    19    21    23         179.51489
  130 Torsion                 20    19    21    24         -59.78939
  131 Torsion                 20    19    26    27         113.58627
  132 Torsion                 20    19    26    28         -68.11627
  133 Torsion                 21    19    26    27          -3.51575
  134 Torsion                 21    19    26    28         174.78172
  135 Torsion                 22    21    19    26         177.02878
  136 Torsion                 22    21    24    25         176.54115
  137 Torsion                 23    21    19    26         -63.69494
  138 Torsion                 23    21    24    25          57.61509
  139 Torsion                 24    21    19    26          57.00077
  140 Torsion                 27    26    28    29          -1.68025
  141 Torsion                 27    26    28    30        -178.76024


            XYZ format geometry
            -------------------
    30
 geometry
 H                    -1.85910516    -4.26634645     1.31334405
 C                    -2.06162651    -3.19755123     1.36468482
 H                    -1.88054940    -2.83103832     2.37348825
 H                    -3.10057962    -3.01326543     1.09209504
 C                    -1.16339006    -2.46869807     0.39409718
 O                    -1.65632398    -1.80579671    -0.50815773
 N                     0.15003748    -2.59829986     0.59566972
 H                     0.41972064    -3.17947257     1.37213303
 C                     1.25725389    -2.00410856    -0.17813744
 H                     2.17772156    -2.30555484     0.32479040
 C                     1.30465206    -2.64594361    -1.57253881
 H                     1.34551417    -3.73227753    -1.48387713
 H                     0.42215451    -2.36508578    -2.14888589
 H                     2.19451652    -2.30152003    -2.10183991
 C                     1.32564609    -0.45889456    -0.23938439
 O                     2.41278068     0.09597088    -0.10412268
 N                     0.20052721     0.24220264    -0.39960678
 H                    -0.65224439    -0.29536369    -0.52113054
 C                     0.09186876     1.70814893    -0.49627544
 H                     0.89705438     2.05967207    -1.14235021
 C                    -1.23191101     2.06494317    -1.18868137
 H                    -1.27698567     1.56920572    -2.15923104
 H                    -2.06919724     1.72237527    -0.57847239
 O                    -1.33117899     3.45999987    -1.37979306
 H                    -1.34337976     3.85966622    -0.49650661
 C                     0.26377649     2.43259587     0.85683186
 O                    -0.56001732     3.24858222     1.26169237
 N                     1.31477763     2.13211862     1.60594067
 H                     1.43122763     2.60121572     2.48769365
 H                     1.99703421     1.47263817     1.25419430

 ==============================================================================
                                internuclear distances
 ------------------------------------------------------------------------------
       center one      |      center two      | atomic units |  angstroms
 ------------------------------------------------------------------------------
    2 C                |   1 H                |     2.05796  |     1.08902
    3 H                |   2 C                |     2.05694  |     1.08849
    4 H                |   2 C                |     2.05945  |     1.08981
    5 C                |   2 C                |     2.85348  |     1.51000
    6 O                |   5 C                |     2.31172  |     1.22331
    7 N                |   5 C                |     2.52299  |     1.33511
    8 H                |   7 N                |     1.90233  |     1.00667
    9 C                |   7 N                |     2.78872  |     1.47573
   10 H                |   9 C                |     2.06237  |     1.09136
   11 C                |   9 C                |     2.90216  |     1.53576
   12 H                |  11 C                |     2.06115  |     1.09071
   13 H                |  11 C                |     2.06133  |     1.09081
   14 H                |  11 C                |     2.06201  |     1.09117
   15 C                |   9 C                |     2.92518  |     1.54794
   16 O                |  15 C                |     2.32062  |     1.22802
   17 N                |  15 C                |     2.52340  |     1.33533
   18 H                |  17 N                |     1.91876  |     1.01536
   19 C                |  17 N                |     2.78384  |     1.47314
   20 H                |  19 C                |     2.06085  |     1.09055
   21 C                |  19 C                |     2.90251  |     1.53594
   22 H                |  21 C                |     2.06123  |     1.09076
   23 H                |  21 C                |     2.06210  |     1.09122
   24 O                |  21 C                |     2.66750  |     1.41158
   25 H                |  24 O                |     1.83223  |     0.96958
   26 C                |  19 C                |     2.91856  |     1.54443
   27 O                |  26 C                |     2.32089  |     1.22816
   28 N                |  26 C                |     2.50419  |     1.32516
   29 H                |  28 N                |     1.90019  |     1.00554
   30 H                |  28 N                |     1.91237  |     1.01199
 ------------------------------------------------------------------------------
                         number of included internuclear distances:         29
 ==============================================================================



 ==============================================================================
                                 internuclear angles
 ------------------------------------------------------------------------------
        center 1       |       center 2       |       center 3       |  degrees
 ------------------------------------------------------------------------------
    1 H                |   2 C                |   3 H                |   110.07
    1 H                |   2 C                |   4 H                |   109.36
    1 H                |   2 C                |   5 C                |   109.44
    3 H                |   2 C                |   4 H                |   109.48
    3 H                |   2 C                |   5 C                |   109.53
    4 H                |   2 C                |   5 C                |   108.95
    2 C                |   5 C                |   6 O                |   119.73
    2 C                |   5 C                |   7 N                |   116.19
    6 O                |   5 C                |   7 N                |   124.08
    5 C                |   7 N                |   8 H                |   115.85
    5 C                |   7 N                |   9 C                |   128.31
    8 H                |   7 N                |   9 C                |   115.84
    7 N                |   9 C                |  10 H                |   106.26
    7 N                |   9 C                |  11 C                |   109.33
    7 N                |   9 C                |  15 C                |   117.12
   10 H                |   9 C                |  11 C                |   106.08
   10 H                |   9 C                |  15 C                |   104.87
   11 C                |   9 C                |  15 C                |   112.33
    9 C                |  11 C                |  12 H                |   110.10
    9 C                |  11 C                |  13 H                |   110.31
    9 C                |  11 C                |  14 H                |   109.49
   12 H                |  11 C                |  13 H                |   109.25
   12 H                |  11 C                |  14 H                |   108.86
   13 H                |  11 C                |  14 H                |   108.80
    9 C                |  15 C                |  16 O                |   119.06
    9 C                |  15 C                |  17 N                |   119.45
   16 O                |  15 C                |  17 N                |   121.46
   15 C                |  17 N                |  18 H                |   116.36
   15 C                |  17 N                |  19 C                |   126.33
   18 H                |  17 N                |  19 C                |   117.20
   17 N                |  19 C                |  20 H                |   107.77
   17 N                |  19 C                |  21 C                |   108.92
   17 N                |  19 C                |  26 C                |   113.65
   20 H                |  19 C                |  21 C                |   107.12
   20 H                |  19 C                |  26 C                |   106.60
   21 C                |  19 C                |  26 C                |   112.45
   19 C                |  21 C                |  22 H                |   109.34
   19 C                |  21 C                |  23 H                |   109.65
   19 C                |  21 C                |  24 O                |   110.56
   22 H                |  21 C                |  23 H                |   108.86
   22 H                |  21 C                |  24 O                |   109.01
   23 H                |  21 C                |  24 O                |   109.39
   21 C                |  24 O                |  25 H                |   106.55
   19 C                |  26 C                |  27 O                |   121.72
   19 C                |  26 C                |  28 N                |   118.50
   27 O                |  26 C                |  28 N                |   119.75
   26 C                |  28 N                |  29 H                |   118.80
   26 C                |  28 N                |  30 H                |   119.08
   29 H                |  28 N                |  30 H                |   122.05
 ------------------------------------------------------------------------------
                            number of included internuclear angles:         49
 ==============================================================================



  library name resolved from: environment
  library file name is: </opt/rit/el9/20230413/app/linux-rhel9-x86_64_v3/gcc-11.2.1/nwchem-7.2.0-oxtctbuhfuzyfaoziquq6bki22grib3g/share/nwchem/libraries/>
  


 Summary of "ao basis" -> "" (cartesian)
 ------------------------------------------------------------------------------
       Tag                 Description            Shells   Functions and Types
 ---------------- ------------------------------  ------  ---------------------
 *                        aug-cc-pvdz                 on all atoms 


                      Basis "ao basis" -> "ao basis" (cartesian)
                      -----
  H (Hydrogen)
  ------------
            Exponent  Coefficients 
       -------------- ---------------------------------------------------------
  1 S  1.30100000E+01  0.019685
  1 S  1.96200000E+00  0.137977
  1 S  4.44600000E-01  0.478148

  2 S  1.22000000E-01  1.000000

  3 S  2.97400000E-02  1.000000

  4 P  7.27000000E-01  1.000000

  5 P  1.41000000E-01  1.000000

  C (Carbon)
  ----------
            Exponent  Coefficients 
       -------------- ---------------------------------------------------------
  1 S  6.66500000E+03  0.000692
  1 S  1.00000000E+03  0.005329
  1 S  2.28000000E+02  0.027077
  1 S  6.47100000E+01  0.101718
  1 S  2.10600000E+01  0.274740
  1 S  7.49500000E+00  0.448564
  1 S  2.79700000E+00  0.285074
  1 S  5.21500000E-01  0.015204

  2 S  6.66500000E+03 -0.000146
  2 S  1.00000000E+03 -0.001154
  2 S  2.28000000E+02 -0.005725
  2 S  6.47100000E+01 -0.023312
  2 S  2.10600000E+01 -0.063955
  2 S  7.49500000E+00 -0.149981
  2 S  2.79700000E+00 -0.127262
  2 S  5.21500000E-01  0.544529

  3 S  1.59600000E-01  1.000000

  4 S  4.69000000E-02  1.000000

  5 P  9.43900000E+00  0.038109
  5 P  2.00200000E+00  0.209480
  5 P  5.45600000E-01  0.508557

  6 P  1.51700000E-01  1.000000

  7 P  4.04100000E-02  1.000000

  8 D  5.50000000E-01  1.000000

  9 D  1.51000000E-01  1.000000

  O (Oxygen)
  ----------
            Exponent  Coefficients 
       -------------- ---------------------------------------------------------
  1 S  1.17200000E+04  0.000710
  1 S  1.75900000E+03  0.005470
  1 S  4.00800000E+02  0.027837
  1 S  1.13700000E+02  0.104800
  1 S  3.70300000E+01  0.283062
  1 S  1.32700000E+01  0.448719
  1 S  5.02500000E+00  0.270952
  1 S  1.01300000E+00  0.015458

  2 S  1.17200000E+04 -0.000160
  2 S  1.75900000E+03 -0.001263
  2 S  4.00800000E+02 -0.006267
  2 S  1.13700000E+02 -0.025716
  2 S  3.70300000E+01 -0.070924
  2 S  1.32700000E+01 -0.165411
  2 S  5.02500000E+00 -0.116955
  2 S  1.01300000E+00  0.557368

  3 S  3.02300000E-01  1.000000

  4 S  7.89600000E-02  1.000000

  5 P  1.77000000E+01  0.043018
  5 P  3.85400000E+00  0.228913
  5 P  1.04600000E+00  0.508728

  6 P  2.75300000E-01  1.000000

  7 P  6.85600000E-02  1.000000

  8 D  1.18500000E+00  1.000000

  9 D  3.32000000E-01  1.000000

  N (Nitrogen)
  ------------
            Exponent  Coefficients 
       -------------- ---------------------------------------------------------
  1 S  9.04600000E+03  0.000700
  1 S  1.35700000E+03  0.005389
  1 S  3.09300000E+02  0.027406
  1 S  8.77300000E+01  0.103207
  1 S  2.85600000E+01  0.278723
  1 S  1.02100000E+01  0.448540
  1 S  3.83800000E+00  0.278238
  1 S  7.46600000E-01  0.015440

  2 S  9.04600000E+03 -0.000153
  2 S  1.35700000E+03 -0.001208
  2 S  3.09300000E+02 -0.005992
  2 S  8.77300000E+01 -0.024544
  2 S  2.85600000E+01 -0.067459
  2 S  1.02100000E+01 -0.158078
  2 S  3.83800000E+00 -0.121831
  2 S  7.46600000E-01  0.549003

  3 S  2.24800000E-01  1.000000

  4 S  6.12400000E-02  1.000000

  5 P  1.35500000E+01  0.039919
  5 P  2.91700000E+00  0.217169
  5 P  7.97300000E-01  0.510319

  6 P  2.18500000E-01  1.000000

  7 P  5.61100000E-02  1.000000

  8 D  8.17000000E-01  1.000000

  9 D  2.30000000E-01  1.000000



 Summary of "ao basis" -> "ao basis" (cartesian)
 ------------------------------------------------------------------------------
       Tag                 Description            Shells   Functions and Types
 ---------------- ------------------------------  ------  ---------------------
 H                        aug-cc-pvdz                5        9   3s2p
 C                        aug-cc-pvdz                9       25   4s3p2d
 O                        aug-cc-pvdz                9       25   4s3p2d
 N                        aug-cc-pvdz                9       25   4s3p2d


                                 NWChem SCF Module
                                 -----------------



  ao basis        = "ao basis"
  functions       =   510
  atoms           =    30
  closed shells   =    58
  open shells     =     0
  charge          =   0.00
  wavefunction    = RHF 
  input vectors   = atomic
  output vectors  = ./ALA_SER_5.movecs
  use symmetry    = F
  symmetry adapt  = F


 Summary of "ao basis" -> "ao basis" (cartesian)
 ------------------------------------------------------------------------------
       Tag                 Description            Shells   Functions and Types
 ---------------- ------------------------------  ------  ---------------------
 H                        aug-cc-pvdz                5        9   3s2p
 C                        aug-cc-pvdz                9       25   4s3p2d
 O                        aug-cc-pvdz                9       25   4s3p2d
 N                        aug-cc-pvdz                9       25   4s3p2d



 Forming initial guess at       2.1s


 !! The overlap matrix has   3 vectors deemed linearly dependent with
    eigenvalues:
 3.26D-06 5.62D-06 9.14D-06


      Superposition of Atomic Density Guess
      -------------------------------------

 Sum of atomic energies:        -770.80158829

      Non-variational initial energy
      ------------------------------

 Total energy =    -780.142371
 1-e energy   =   -3198.731255
 2-e energy   =    1336.552959
 HOMO         =      -0.310630
 LUMO         =       0.003749


 Starting SCF solution at     193.5s



 ----------------------------------------------
         Quadratically convergent ROHF

 Convergence threshold     :          1.000E-04
 Maximum no. of iterations :           30
 Final Fock-matrix accuracy:          1.000E-10
 ----------------------------------------------


              iter       energy          gnorm     gmax       time
             ----- ------------------- --------- --------- --------
                 1     -774.2959485830  2.40D+00  1.38D-01    376.9
                 2     -774.5963810825  7.84D-01  3.92D-02    721.3
                 3     -774.6498889452  6.17D-02  4.08D-03   1260.3
                 4     -774.6504592635  1.80D-03  1.23D-04   2145.2
                 5     -774.6504596918  4.49D-06  3.94D-07   3372.8


       Final RHF  results 
       ------------------ 

         Total SCF energy =   -774.650459691782
      One-electron energy =  -3209.069945223117
      Two-electron energy =   1352.383561112997
 Nuclear repulsion energy =   1082.035924418338

        Time for solution =   3187.4s


             Final eigenvalues
             -----------------

              1      
    1  -20.5556
    2  -20.5480
    3  -20.5449
    4  -20.5277
    5  -15.6293
    6  -15.6022
    7  -15.5845
    8  -11.3863
    9  -11.3772
   10  -11.3592
   11  -11.3213
   12  -11.2950
   13  -11.2851
   14  -11.2641
   15  -11.2499
   16   -1.4221
   17   -1.4066
   18   -1.3904
   19   -1.3484
   20   -1.2752
   21   -1.2494
   22   -1.2141
   23   -1.0832
   24   -1.0288
   25   -1.0127
   26   -0.9123
   27   -0.8891
   28   -0.8431
   29   -0.7971
   30   -0.7885
   31   -0.7462
   32   -0.7394
   33   -0.7233
   34   -0.6949
   35   -0.6812
   36   -0.6588
   37   -0.6559
   38   -0.6414
   39   -0.6236
   40   -0.6139
   41   -0.6111
   42   -0.6015
   43   -0.5878
   44   -0.5813
   45   -0.5703
   46   -0.5634
   47   -0.5544
   48   -0.5420
   49   -0.5320
   50   -0.5286
   51   -0.5019
   52   -0.4605
   53   -0.4481
   54   -0.4418
   55   -0.4357
   56   -0.4173
   57   -0.4084
   58   -0.3952
   59    0.0166
   60    0.0342
   61    0.0349
   62    0.0420
   63    0.0512
   64    0.0553
   65    0.0575
   66    0.0604
   67    0.0684
   68    0.0771

                       ROHF Final Molecular Orbital Analysis
                       -------------------------------------

 Vector   16  Occ=2.000000D+00  E=-1.422104D+00
              MO Center= -1.1D+00, -1.9D+00, -1.4D-01, r^2= 1.8D+00
   Bfn.  Coefficient  Atom+Function         Bfn.  Coefficient  Atom+Function  
  ----- ------------  ---------------      ----- ------------  ---------------
    80      0.344797   6 O  s                79      0.338847   6 O  s         
    54      0.234027   5 C  s                12      0.159410   2 C  s         

 Vector   17  Occ=2.000000D+00  E=-1.406586D+00
              MO Center=  1.5D+00, -2.4D-02, -1.0D-01, r^2= 2.7D+00
   Bfn.  Coefficient  Atom+Function         Bfn.  Coefficient  Atom+Function  
  ----- ------------  ---------------      ----- ------------  ---------------
   250      0.352052  16 O  s               249      0.331779  16 O  s         
   224      0.225706  15 C  s         

 Vector   18  Occ=2.000000D+00  E=-1.390448D+00
              MO Center= -8.5D-02,  2.7D+00,  9.5D-01, r^2= 2.1D+00
   Bfn.  Coefficient  Atom+Function         Bfn.  Coefficient  Atom+Function  
  ----- ------------  ---------------      ----- ------------  ---------------
   445      0.367924  27 O  s               444      0.336394  27 O  s         
   419      0.228559  26 C  s         

 Vector   19  Occ=2.000000D+00  E=-1.348446D+00
              MO Center= -1.2D+00,  3.2D+00, -1.1D+00, r^2= 1.1D+00
   Bfn.  Coefficient  Atom+Function         Bfn.  Coefficient  Atom+Function  
  ----- ------------  ---------------      ----- ------------  ---------------
   386      0.438355  24 O  s               385      0.394571  24 O  s         
   343     -0.206206  21 C  s               409      0.183937  25 H  s         
   316     -0.163933  19 C  pz              314     -0.156796  19 C  px        

 Vector   20  Occ=2.000000D+00  E=-1.275240D+00
              MO Center= -4.1D-02, -2.4D+00,  3.6D-01, r^2= 1.8D+00
   Bfn.  Coefficient  Atom+Function         Bfn.  Coefficient  Atom+Function  
  ----- ------------  ---------------      ----- ------------  ---------------
   105      0.407139   7 N  s               104      0.344670   7 N  s         
    80     -0.212032   6 O  s                79     -0.176177   6 O  s         
   128      0.159552   8 H  s                57      0.158247   5 C  px        

 Vector   21  Occ=2.000000D+00  E=-1.249387D+00
              MO Center=  4.8D-01,  3.6D-01, -2.5D-01, r^2= 2.3D+00
   Bfn.  Coefficient  Atom+Function         Bfn.  Coefficient  Atom+Function  
  ----- ------------  ---------------      ----- ------------  ---------------
   275      0.387046  17 N  s               274      0.337308  17 N  s         
   250     -0.201557  16 O  s               309     -0.188632  19 C  s         
   227     -0.183703  15 C  px              249     -0.162959  16 O  s         

 Vector   22  Occ=2.000000D+00  E=-1.214064D+00
              MO Center=  9.4D-01,  2.1D+00,  1.3D+00, r^2= 1.7D+00
   Bfn.  Coefficient  Atom+Function         Bfn.  Coefficient  Atom+Function  
  ----- ------------  ---------------      ----- ------------  ---------------
   470      0.397136  28 N  s               469      0.365382  28 N  s         
   445     -0.205793  27 O  s               422      0.180236  26 C  px        
   444     -0.169848  27 O  s               502      0.161919  30 H  s         
   493      0.156484  29 H  s               275     -0.155337  17 N  s         

 Vector   23  Occ=2.000000D+00  E=-1.083240D+00
              MO Center=  4.2D-01, -2.0D+00, -1.7D-01, r^2= 4.8D+00
   Bfn.  Coefficient  Atom+Function         Bfn.  Coefficient  Atom+Function  
  ----- ------------  ---------------      ----- ------------  ---------------
   138      0.245321   9 C  s               172      0.188061  11 C  s         

 Vector   24  Occ=2.000000D+00  E=-1.028815D+00
              MO Center= -3.3D-01,  7.1D-01, -2.4D-01, r^2= 6.5D+00
   Bfn.  Coefficient  Atom+Function         Bfn.  Coefficient  Atom+Function  
  ----- ------------  ---------------      ----- ------------  ---------------
   308      0.258862  19 C  s               342      0.171346  21 C  s         
   139     -0.167786   9 C  s               145     -0.158514   9 C  py        

 Vector   25  Occ=2.000000D+00  E=-1.012734D+00
              MO Center= -8.0D-01, -2.5D+00,  3.8D-01, r^2= 6.4D+00
   Bfn.  Coefficient  Atom+Function         Bfn.  Coefficient  Atom+Function  
  ----- ------------  ---------------      ----- ------------  ---------------
    11      0.287686   2 C  s               172      0.182187  11 C  s         
   146     -0.155227   9 C  pz        

 Vector   26  Occ=2.000000D+00  E=-9.123098D-01
              MO Center=  7.5D-01, -1.9D+00, -7.4D-01, r^2= 5.5D+00
   Bfn.  Coefficient  Atom+Function         Bfn.  Coefficient  Atom+Function  
  ----- ------------  ---------------      ----- ------------  ---------------
   145      0.264034   9 C  py              172     -0.257952  11 C  s         
   138      0.171754   9 C  s               107      0.154833   7 N  px        

 Vector   27  Occ=2.000000D+00  E=-8.891374D-01
              MO Center= -4.1D-01,  1.8D+00, -4.2D-01, r^2= 4.9D+00
   Bfn.  Coefficient  Atom+Function         Bfn.  Coefficient  Atom+Function  
  ----- ------------  ---------------      ----- ------------  ---------------
   309      0.434669  19 C  s               342     -0.259966  21 C  s         
   343     -0.209510  21 C  s               316      0.202959  19 C  pz        
   366     -0.169874  22 H  s               139      0.166067   9 C  s         
   375     -0.151023  23 H  s         

 Vector   28  Occ=2.000000D+00  E=-8.430521D-01
              MO Center=  1.6D-01, -1.2D+00,  2.6D-01, r^2= 5.9D+00
   Bfn.  Coefficient  Atom+Function         Bfn.  Coefficient  Atom+Function  
  ----- ------------  ---------------      ----- ------------  ---------------
   139      0.312427   9 C  s               107     -0.241174   7 N  px        
   128     -0.185310   8 H  s               309      0.176498  19 C  s         
   224      0.173034  15 C  s                54      0.168821   5 C  s         
   145      0.150349   9 C  py        

 Vector   29  Occ=2.000000D+00  E=-7.970515D-01
              MO Center=  2.6D-01, -2.2D-01,  1.7D-01, r^2= 7.7D+00
   Bfn.  Coefficient  Atom+Function         Bfn.  Coefficient  Atom+Function  
  ----- ------------  ---------------      ----- ------------  ---------------
   225      0.291764  15 C  s               128      0.215995   8 H  s         
   139     -0.199920   9 C  s               277      0.196061  17 N  px        
   343      0.196430  21 C  s               109      0.150688   7 N  pz        

 Vector   30  Occ=2.000000D+00  E=-7.884565D-01
              MO Center=  5.4D-01,  1.1D+00,  4.1D-01, r^2= 4.6D+00
   Bfn.  Coefficient  Atom+Function         Bfn.  Coefficient  Atom+Function  
  ----- ------------  ---------------      ----- ------------  ---------------
   277      0.254711  17 N  px              225      0.230237  15 C  s         
   298     -0.230229  18 H  s               472      0.222518  28 N  px        
   419     -0.169426  26 C  s               316     -0.165264  19 C  pz        
   299     -0.159076  18 H  s               421      0.158769  26 C  s         
   502      0.155018  30 H  s               275     -0.150757  17 N  s         

 Vector   31  Occ=2.000000D+00  E=-7.462059D-01
              MO Center=  5.7D-01, -6.3D-01,  5.4D-01, r^2= 8.0D+00
   Bfn.  Coefficient  Atom+Function         Bfn.  Coefficient  Atom+Function  
  ----- ------------  ---------------      ----- ------------  ---------------
   225     -0.205263  15 C  s               109      0.197085   7 N  pz        
   145      0.182747   9 C  py              141      0.178596   9 C  px        
   502     -0.170603  30 H  s               128      0.157301   8 H  s         

 Vector   32  Occ=2.000000D+00  E=-7.393618D-01
              MO Center=  3.2D-01,  2.2D-01,  2.8D-01, r^2= 7.4D+00
   Bfn.  Coefficient  Atom+Function         Bfn.  Coefficient  Atom+Function  
  ----- ------------  ---------------      ----- ------------  ---------------
   225     -0.256609  15 C  s               145      0.241095   9 C  py        
   109      0.184942   7 N  pz              502      0.184567  30 H  s         
   315      0.181182  19 C  py              424     -0.160322  26 C  pz        
   472      0.157086  28 N  px        

 Vector   33  Occ=2.000000D+00  E=-7.232813D-01
              MO Center= -2.9D-01, -6.1D-01,  3.0D-01, r^2= 9.2D+00
   Bfn.  Coefficient  Atom+Function         Bfn.  Coefficient  Atom+Function  
  ----- ------------  ---------------      ----- ------------  ---------------
    84     -0.175773   6 O  pz               57      0.165429   5 C  px        
   493      0.165778  29 H  s                80      0.163768   6 O  s         
   343     -0.160760  21 C  s               474      0.150514  28 N  pz        

 Vector   34  Occ=2.000000D+00  E=-6.949421D-01
              MO Center= -3.0D-01,  1.8D+00, -1.1D-01, r^2= 6.7D+00
   Bfn.  Coefficient  Atom+Function         Bfn.  Coefficient  Atom+Function  
  ----- ------------  ---------------      ----- ------------  ---------------
   390      0.207800  24 O  pz              347      0.191378  21 C  pz        
   474      0.186920  28 N  pz              493      0.176282  29 H  s         
   225      0.171996  15 C  s               409      0.156036  25 H  s         
   445     -0.153715  27 O  s         

 Vector   35  Occ=2.000000D+00  E=-6.812348D-01
              MO Center= -4.1D-02,  3.6D-01, -3.8D-02, r^2= 8.1D+00
   Bfn.  Coefficient  Atom+Function         Bfn.  Coefficient  Atom+Function  
  ----- ------------  ---------------      ----- ------------  ---------------
   315      0.281041  19 C  py              278     -0.203169  17 N  py        
   252      0.188083  16 O  px              250      0.178819  16 O  s         
   312      0.171613  19 C  py               57     -0.161756   5 C  px        
    84      0.155515   6 O  pz              227     -0.155843  15 C  px        
   139     -0.152562   9 C  s         

 Vector   36  Occ=2.000000D+00  E=-6.587592D-01
              MO Center= -2.4D-01,  7.7D-01,  8.0D-02, r^2= 1.0D+01
   Bfn.  Coefficient  Atom+Function         Bfn.  Coefficient  Atom+Function  
  ----- ------------  ---------------      ----- ------------  ---------------
   421      0.227950  26 C  s               139      0.217760   9 C  s         
   422     -0.197659  26 C  px              390     -0.171968  24 O  pz        
   409     -0.168659  25 H  s               448     -0.166051  27 O  py        

 Vector   37  Occ=2.000000D+00  E=-6.559050D-01
              MO Center= -3.3D-01, -1.3D+00,  1.3D-01, r^2= 8.4D+00
   Bfn.  Coefficient  Atom+Function         Bfn.  Coefficient  Atom+Function  
  ----- ------------  ---------------      ----- ------------  ---------------
   173      0.209867  11 C  s                58      0.196061   5 C  py        
   108      0.179983   7 N  py              139     -0.156424   9 C  s         

 Vector   38  Occ=2.000000D+00  E=-6.413678D-01
              MO Center=  3.6D-02, -1.2D+00,  3.1D-02, r^2= 8.6D+00
   Bfn.  Coefficient  Atom+Function         Bfn.  Coefficient  Atom+Function  
  ----- ------------  ---------------      ----- ------------  ---------------
   253      0.172232  16 O  py              139      0.165751   9 C  s         
    83      0.160826   6 O  py              227     -0.159951  15 C  px        
    35      0.156071   3 H  s               162      0.154187  10 H  s         

 Vector   39  Occ=2.000000D+00  E=-6.236297D-01
              MO Center=  3.3D-01, -8.1D-01, -4.3D-01, r^2= 8.0D+00
   Bfn.  Coefficient  Atom+Function         Bfn.  Coefficient  Atom+Function  
  ----- ------------  ---------------      ----- ------------  ---------------
   252     -0.183748  16 O  px               82      0.175124   6 O  px        
   176     -0.170138  11 C  py              234     -0.165531  15 C  py        
   315      0.160996  19 C  py              196      0.155662  12 H  s         
   278     -0.152272  17 N  py        

 Vector   40  Occ=2.000000D+00  E=-6.139065D-01
              MO Center= -5.7D-02, -1.4D+00,  3.5D-02, r^2= 8.5D+00
   Bfn.  Coefficient  Atom+Function         Bfn.  Coefficient  Atom+Function  
  ----- ------------  ---------------      ----- ------------  ---------------
   252     -0.223182  16 O  px               59      0.209977   5 C  pz        
    82     -0.191507   6 O  px               15      0.188432   2 C  py        
     1     -0.159472   1 H  s               145     -0.150367   9 C  py        

 Vector   41  Occ=2.000000D+00  E=-6.110678D-01
              MO Center= -8.1D-02,  5.0D-01,  2.6D-01, r^2= 9.8D+00
   Bfn.  Coefficient  Atom+Function         Bfn.  Coefficient  Atom+Function  
  ----- ------------  ---------------      ----- ------------  ---------------
   420      0.192249  26 C  s               448     -0.178459  27 O  py        
   309     -0.171703  19 C  s               447      0.171417  27 O  px        
   445     -0.168357  27 O  s               276      0.160343  17 N  s         
   279     -0.150589  17 N  pz        

 Vector   42  Occ=2.000000D+00  E=-6.014886D-01
              MO Center= -6.4D-02,  6.8D-01, -2.7D-01, r^2= 9.7D+00
   Bfn.  Coefficient  Atom+Function         Bfn.  Coefficient  Atom+Function  
  ----- ------------  ---------------      ----- ------------  ---------------
   389      0.229842  24 O  py              346     -0.191302  21 C  py        
   254      0.174965  16 O  pz              447      0.168457  27 O  px        
   392      0.150894  24 O  py        

 Vector   43  Occ=2.000000D+00  E=-5.878338D-01
              MO Center= -1.4D+00, -2.3D+00,  6.0D-01, r^2= 7.7D+00
   Bfn.  Coefficient  Atom+Function         Bfn.  Coefficient  Atom+Function  
  ----- ------------  ---------------      ----- ------------  ---------------
    44     -0.304980   4 H  s                14      0.287941   2 C  px        
    45     -0.242499   4 H  s                35      0.199203   3 H  s         
    16      0.194241   2 C  pz              175     -0.162934  11 C  px        
   215     -0.162164  14 H  s         

 Vector   44  Occ=2.000000D+00  E=-5.812585D-01
              MO Center= -4.3D-01,  1.6D+00, -1.7D-01, r^2= 7.7D+00
   Bfn.  Coefficient  Atom+Function         Bfn.  Coefficient  Atom+Function  
  ----- ------------  ---------------      ----- ------------  ---------------
   345     -0.233273  21 C  px              388     -0.229224  24 O  px        
   311      0.216002  19 C  px              391     -0.182311  24 O  px        
   424     -0.171376  26 C  pz        

 Vector   45  Occ=2.000000D+00  E=-5.703198D-01
              MO Center= -5.4D-01,  8.1D-01, -3.6D-01, r^2= 1.1D+01
   Bfn.  Coefficient  Atom+Function         Bfn.  Coefficient  Atom+Function  
  ----- ------------  ---------------      ----- ------------  ---------------
   389      0.227029  24 O  py              346     -0.191326  21 C  py        
   366      0.189631  22 H  s               367      0.189204  22 H  s         
   447     -0.181797  27 O  px              423     -0.160856  26 C  py        
   392      0.156968  24 O  py        

 Vector   46  Occ=2.000000D+00  E=-5.634234D-01
              MO Center= -2.0D-01, -1.1D+00,  8.8D-02, r^2= 1.0D+01
   Bfn.  Coefficient  Atom+Function         Bfn.  Coefficient  Atom+Function  
  ----- ------------  ---------------      ----- ------------  ---------------
     1      0.169394   1 H  s               215      0.169164  14 H  s         
   175      0.151734  11 C  px              206     -0.152448  13 H  s         
   214      0.152221  14 H  s         

 Vector   47  Occ=2.000000D+00  E=-5.544442D-01
              MO Center=  8.1D-01, -4.6D-01, -5.0D-01, r^2= 9.5D+00
   Bfn.  Coefficient  Atom+Function         Bfn.  Coefficient  Atom+Function  
  ----- ------------  ---------------      ----- ------------  ---------------
   176      0.270940  11 C  py              197     -0.258716  12 H  s         
   196     -0.256164  12 H  s               448      0.166121  27 O  py        

 Vector   48  Occ=2.000000D+00  E=-5.420191D-01
              MO Center=  2.5D-01, -1.4D+00, -3.6D-01, r^2= 8.3D+00
   Bfn.  Coefficient  Atom+Function         Bfn.  Coefficient  Atom+Function  
  ----- ------------  ---------------      ----- ------------  ---------------
   226      0.257139  15 C  s               276     -0.241530  17 N  s         
   175     -0.223856  11 C  px              206      0.215960  13 H  s         
   205      0.178286  13 H  s                83      0.167357   6 O  py        
   214     -0.165188  14 H  s               106     -0.161649   7 N  s         
   275     -0.158625  17 N  s               215     -0.156640  14 H  s         

 Vector   49  Occ=2.000000D+00  E=-5.319915D-01
              MO Center=  4.9D-03, -6.4D-01, -1.5D-01, r^2= 9.3D+00
   Bfn.  Coefficient  Atom+Function         Bfn.  Coefficient  Atom+Function  
  ----- ------------  ---------------      ----- ------------  ---------------
   197      0.212340  12 H  s               177      0.184961  11 C  pz        
   143     -0.175547   9 C  pz              332     -0.157064  20 H  s         
    84      0.151682   6 O  pz        

 Vector   50  Occ=2.000000D+00  E=-5.285886D-01
              MO Center=  8.7D-01, -6.6D-01, -5.7D-01, r^2= 7.3D+00
   Bfn.  Coefficient  Atom+Function         Bfn.  Coefficient  Atom+Function  
  ----- ------------  ---------------      ----- ------------  ---------------
   163      0.241913  10 H  s               143      0.210249   9 C  pz        
   205      0.210470  13 H  s               162      0.207719  10 H  s         
   106     -0.199133   7 N  s               254     -0.187316  16 O  pz        
   175     -0.175090  11 C  px              177     -0.172774  11 C  pz        
   367      0.160203  22 H  s               343      0.157682  21 C  s         

 Vector   51  Occ=2.000000D+00  E=-5.019249D-01
              MO Center= -9.3D-01,  2.5D+00, -9.4D-01, r^2= 4.0D+00
   Bfn.  Coefficient  Atom+Function         Bfn.  Coefficient  Atom+Function  
  ----- ------------  ---------------      ----- ------------  ---------------
   390      0.332284  24 O  pz              347     -0.278284  21 C  pz        
   367      0.231273  22 H  s               366      0.220551  22 H  s         
   343     -0.214689  21 C  s               393      0.214707  24 O  pz        
   386     -0.196442  24 O  s               409      0.171231  25 H  s         
   389     -0.160982  24 O  py              375     -0.158162  23 H  s         

 Vector   52  Occ=2.000000D+00  E=-4.605168D-01
              MO Center=  5.4D-01, -9.9D-01, -1.9D-01, r^2= 6.2D+00
   Bfn.  Coefficient  Atom+Function         Bfn.  Coefficient  Atom+Function  
  ----- ------------  ---------------      ----- ------------  ---------------
   253      0.339285  16 O  py              256      0.275839  16 O  py        
   163     -0.208707  10 H  s                84     -0.204921   6 O  pz        
    82      0.201426   6 O  px              226      0.196858  15 C  s         
   109      0.179133   7 N  pz              173      0.179938  11 C  s         
   252     -0.170180  16 O  px               85      0.164691   6 O  px        

 Vector   53  Occ=2.000000D+00  E=-4.480673D-01
              MO Center= -9.4D-01, -1.6D+00, -8.4D-02, r^2= 5.0D+00
   Bfn.  Coefficient  Atom+Function         Bfn.  Coefficient  Atom+Function  
  ----- ------------  ---------------      ----- ------------  ---------------
    82      0.408790   6 O  px               85      0.336278   6 O  px        
    83      0.223465   6 O  py               86      0.182480   6 O  py        
   105     -0.172349   7 N  s               253     -0.158622  16 O  py        
   107      0.154216   7 N  px               16     -0.151643   2 C  pz        

 Vector   54  Occ=2.000000D+00  E=-4.418030D-01
              MO Center=  1.6D-01,  1.6D+00,  2.2D-01, r^2= 6.0D+00
   Bfn.  Coefficient  Atom+Function         Bfn.  Coefficient  Atom+Function  
  ----- ------------  ---------------      ----- ------------  ---------------
   343      0.298916  21 C  s               449     -0.295610  27 O  pz        
   254      0.264661  16 O  pz              279     -0.244211  17 N  pz        
   452     -0.238231  27 O  pz              447     -0.235761  27 O  px        
   282     -0.229194  17 N  pz              257      0.206668  16 O  pz        
   348      0.198937  21 C  px              450     -0.180376  27 O  px        

 Vector   55  Occ=2.000000D+00  E=-4.356982D-01
              MO Center= -1.0D+00,  2.6D+00, -8.7D-01, r^2= 3.7D+00
   Bfn.  Coefficient  Atom+Function         Bfn.  Coefficient  Atom+Function  
  ----- ------------  ---------------      ----- ------------  ---------------
   388      0.462966  24 O  px              391      0.365213  24 O  px        
   375      0.222275  23 H  s               344      0.211618  21 C  s         
   345     -0.210852  21 C  px              348     -0.210310  21 C  px        
   311      0.199654  19 C  px              318     -0.181421  19 C  py        
   376      0.157213  23 H  s         

 Vector   56  Occ=2.000000D+00  E=-4.173373D-01
              MO Center=  5.3D-01, -1.4D+00,  9.4D-03, r^2= 5.2D+00
   Bfn.  Coefficient  Atom+Function         Bfn.  Coefficient  Atom+Function  
  ----- ------------  ---------------      ----- ------------  ---------------
   108      0.292931   7 N  py              253     -0.291267  16 O  py        
   111      0.265456   7 N  py              256     -0.226777  16 O  py        
   109      0.211565   7 N  pz              112      0.205902   7 N  pz        
    83     -0.184812   6 O  py              145     -0.181134   9 C  py        
   142     -0.179166   9 C  py               84     -0.164956   6 O  pz        

 Vector   57  Occ=2.000000D+00  E=-4.084480D-01
              MO Center=  5.1D-01,  2.5D+00,  1.3D+00, r^2= 2.7D+00
   Bfn.  Coefficient  Atom+Function         Bfn.  Coefficient  Atom+Function  
  ----- ------------  ---------------      ----- ------------  ---------------
   473      0.320071  28 N  py              448     -0.281137  27 O  py        
   476      0.275549  28 N  py              472      0.240068  28 N  px        
   451     -0.220973  27 O  py              475      0.207769  28 N  px        
   449      0.203617  27 O  pz              474     -0.190658  28 N  pz        
   447     -0.179166  27 O  px              452      0.162656  27 O  pz        

 Vector   58  Occ=2.000000D+00  E=-3.952422D-01
              MO Center=  3.8D-01,  1.3D+00,  6.7D-02, r^2= 4.5D+00
   Bfn.  Coefficient  Atom+Function         Bfn.  Coefficient  Atom+Function  
  ----- ------------  ---------------      ----- ------------  ---------------
   279      0.367709  17 N  pz              282      0.334437  17 N  pz        
   449     -0.261477  27 O  pz              254     -0.248265  16 O  pz        
   452     -0.204654  27 O  pz              257     -0.198752  16 O  pz        
   313     -0.195764  19 C  pz              420     -0.195338  26 C  s         

 Vector   59  Occ=0.000000D+00  E= 1.662060D-02
              MO Center=  5.0D-01, -4.4D+00,  1.9D+00, r^2= 1.7D+01
   Bfn.  Coefficient  Atom+Function         Bfn.  Coefficient  Atom+Function  
  ----- ------------  ---------------      ----- ------------  ---------------
   300     -3.663955  18 H  s               234      3.629908  15 C  py        
   106      2.470630   7 N  s               148      2.027118   9 C  py        
    12     -2.005987   2 C  s               318      1.761738  19 C  py        
   421     -1.746899  26 C  s               310     -1.735902  19 C  s         
    64      1.654650   5 C  py              130      1.620051   8 H  s         

 Vector   60  Occ=0.000000D+00  E= 3.420897D-02
              MO Center=  7.6D-01, -2.8D+00,  9.1D-01, r^2= 3.2D+01
   Bfn.  Coefficient  Atom+Function         Bfn.  Coefficient  Atom+Function  
  ----- ------------  ---------------      ----- ------------  ---------------
   234      4.483912  15 C  py              198      3.246060  12 H  s         
   300     -2.893258  18 H  s               226     -2.867154  15 C  s         
   471     -2.745131  28 N  s               147      2.491741   9 C  px        
   174      2.321651  11 C  s               149      2.212646   9 C  pz        
     3      2.065472   1 H  s                13      2.070951   2 C  s         

 Vector   61  Occ=0.000000D+00  E= 3.488089D-02
              MO Center= -7.0D-01, -3.5D+00,  1.4D+00, r^2= 3.0D+01
   Bfn.  Coefficient  Atom+Function         Bfn.  Coefficient  Atom+Function  
  ----- ------------  ---------------      ----- ------------  ---------------
    63      4.119137   5 C  px              106     -3.001539   7 N  s         
   421      2.707341  26 C  s               174      2.390970  11 C  s         
   164     -2.321948  10 H  s                65     -2.121634   5 C  pz        
    64      2.082059   5 C  py              149      2.066326   9 C  pz        
    12     -1.938056   2 C  s                37      1.887467   3 H  s         

 Vector   62  Occ=0.000000D+00  E= 4.200842D-02
              MO Center=  8.6D-01, -7.5D-01, -6.3D-01, r^2= 3.6D+01
   Bfn.  Coefficient  Atom+Function         Bfn.  Coefficient  Atom+Function  
  ----- ------------  ---------------      ----- ------------  ---------------
   300      4.152441  18 H  s               421      2.933487  26 C  s         
   207     -2.060400  13 H  s               130      2.002927   8 H  s         
   106      1.919247   7 N  s               216     -1.871075  14 H  s         
   173      1.788878  11 C  s               471     -1.731447  28 N  s         
   174      1.671195  11 C  s                46     -1.625716   4 H  s         

 Vector   63  Occ=0.000000D+00  E= 5.119376D-02
              MO Center=  9.5D-01, -1.7D-01,  1.8D+00, r^2= 3.8D+01
   Bfn.  Coefficient  Atom+Function         Bfn.  Coefficient  Atom+Function  
  ----- ------------  ---------------      ----- ------------  ---------------
   226      4.013853  15 C  s               495     -2.927808  29 H  s         
     3     -2.740103   1 H  s               430      2.624570  26 C  pz        
   310      2.541313  19 C  s               198     -2.471986  12 H  s         
   174     -2.394909  11 C  s                13     -2.243858   2 C  s         
   471     -2.202326  28 N  s               300     -2.048008  18 H  s         

 Vector   64  Occ=0.000000D+00  E= 5.529202D-02
              MO Center= -6.9D-01, -1.9D+00, -1.6D-01, r^2= 3.7D+01
   Bfn.  Coefficient  Atom+Function         Bfn.  Coefficient  Atom+Function  
  ----- ------------  ---------------      ----- ------------  ---------------
   164      4.424844  10 H  s                46      4.131481   4 H  s         
    63      3.699517   5 C  px              234      3.610382  15 C  py        
    13      3.462236   2 C  s               113      3.286280   7 N  px        
   421     -3.213832  26 C  s               334     -2.305988  20 H  s         
    56      2.255654   5 C  s               130     -2.254601   8 H  s         

 Vector   65  Occ=0.000000D+00  E= 5.753433D-02
              MO Center=  6.4D-02, -2.3D+00,  1.3D-01, r^2= 3.8D+01
   Bfn.  Coefficient  Atom+Function         Bfn.  Coefficient  Atom+Function  
  ----- ------------  ---------------      ----- ------------  ---------------
   234     -5.057682  15 C  py              226      4.598533  15 C  s         
   198     -4.506494  12 H  s               147     -4.338173   9 C  px        
   164      4.223052  10 H  s                37     -4.110993   3 H  s         
   174     -3.560271  11 C  s               106     -2.945764   7 N  s         
   149     -2.542742   9 C  pz               13     -2.422301   2 C  s         

 Vector   66  Occ=0.000000D+00  E= 6.037722D-02
              MO Center= -1.9D-01, -1.2D+00, -9.6D-01, r^2= 3.8D+01
   Bfn.  Coefficient  Atom+Function         Bfn.  Coefficient  Atom+Function  
  ----- ------------  ---------------      ----- ------------  ---------------
   216      3.854905  14 H  s               226      3.140660  15 C  s         
    13     -3.036942   2 C  s               174     -3.033838  11 C  s         
   276     -2.820920  17 N  s               207     -2.745761  13 H  s         
   130     -2.408329   8 H  s               377     -2.118876  23 H  s         
   300      2.084834  18 H  s               344      2.069044  21 C  s         

 Vector   67  Occ=0.000000D+00  E= 6.842599D-02
              MO Center= -6.2D-01,  1.8D+00, -1.3D+00, r^2= 3.4D+01
   Bfn.  Coefficient  Atom+Function         Bfn.  Coefficient  Atom+Function  
  ----- ------------  ---------------      ----- ------------  ---------------
   207      4.648275  13 H  s               344      3.865127  21 C  s         
   334     -2.964165  20 H  s               471      2.630671  28 N  s         
   198     -2.482559  12 H  s               411     -2.228139  25 H  s         
   504      2.136725  30 H  s               235     -1.790504  15 C  pz        
   428     -1.673322  26 C  px              182     -1.653916  11 C  py        

 Vector   68  Occ=0.000000D+00  E= 7.711718D-02
              MO Center=  5.9D-01,  5.5D-02, -8.6D-01, r^2= 4.1D+01
   Bfn.  Coefficient  Atom+Function         Bfn.  Coefficient  Atom+Function  
  ----- ------------  ---------------      ----- ------------  ---------------
   334      5.586022  20 H  s               226     -5.032706  15 C  s         
   216     -4.453568  14 H  s               421      3.723132  26 C  s         
   140     -3.615263   9 C  s               198      3.603809  12 H  s         
   234     -3.586187  15 C  py                3     -3.225793   1 H  s         
   317     -3.165994  19 C  px              318     -2.892578  19 C  py        

 Vector   69  Occ=0.000000D+00  E= 7.972725D-02
              MO Center= -1.9D-02, -1.8D+00, -1.9D-01, r^2= 3.7D+01
   Bfn.  Coefficient  Atom+Function         Bfn.  Coefficient  Atom+Function  
  ----- ------------  ---------------      ----- ------------  ---------------
   164      5.838812  10 H  s               300     -5.205319  18 H  s         
   130     -4.996103   8 H  s               368      4.851055  22 H  s         
   216     -4.086624  14 H  s                37      3.740901   3 H  s         
   147     -3.636987   9 C  px               56      2.977881   5 C  s         
   353      2.382458  21 C  pz              198      2.263318  12 H  s         

 Vector   70  Occ=0.000000D+00  E= 8.293266D-02
              MO Center= -1.8D-01,  1.0D-01,  1.3D+00, r^2= 3.7D+01
   Bfn.  Coefficient  Atom+Function         Bfn.  Coefficient  Atom+Function  
  ----- ------------  ---------------      ----- ------------  ---------------
   504      5.283654  30 H  s               377      4.496326  23 H  s         
   234     -4.124403  15 C  py               46     -3.448884   4 H  s         
   368     -3.386028  22 H  s               495     -3.286635  29 H  s         
   421     -2.920018  26 C  s                56     -2.674177   5 C  s         
     3      2.528546   1 H  s               317      2.240504  19 C  px        

 Vector   71  Occ=0.000000D+00  E= 8.577690D-02
              MO Center= -1.1D+00,  1.0D+00, -1.7D+00, r^2= 3.6D+01
   Bfn.  Coefficient  Atom+Function         Bfn.  Coefficient  Atom+Function  
  ----- ------------  ---------------      ----- ------------  ---------------
   300     -7.505330  18 H  s               207      7.049358  13 H  s         
   226      5.472781  15 C  s               174     -5.414432  11 C  s         
    56      4.185688   5 C  s               276     -3.556539  17 N  s         
   411      3.286584  25 H  s               164      3.261065  10 H  s         
   198     -3.216232  12 H  s               310      3.204559  19 C  s         

 Vector   72  Occ=0.000000D+00  E= 9.238538D-02
              MO Center=  6.0D-01, -4.1D-01,  6.3D-01, r^2= 3.5D+01
   Bfn.  Coefficient  Atom+Function         Bfn.  Coefficient  Atom+Function  
  ----- ------------  ---------------      ----- ------------  ---------------
   300      6.121761  18 H  s               504     -5.776110  30 H  s         
   344      5.398250  21 C  s               164      5.242924  10 H  s         
   147     -4.627824   9 C  px               56     -4.202686   5 C  s         
   130     -3.729910   8 H  s               174      3.381033  11 C  s         
   233      2.966599  15 C  px              430      2.909764  26 C  pz        

 Vector   73  Occ=0.000000D+00  E= 1.017674D-01
              MO Center= -8.4D-01, -3.2D-02,  4.0D-01, r^2= 3.5D+01
   Bfn.  Coefficient  Atom+Function         Bfn.  Coefficient  Atom+Function  
  ----- ------------  ---------------      ----- ------------  ---------------
   174     14.218266  11 C  s               226    -12.808033  15 C  s         
   421      8.403856  26 C  s               140     -7.805878   9 C  s         
    13      7.397374   2 C  s               377     -6.861938  23 H  s         
   276      6.324287  17 N  s               149      5.412565   9 C  pz        
   234      5.267948  15 C  py              319     -4.751352  19 C  pz        

 Vector   74  Occ=0.000000D+00  E= 1.156253D-01
              MO Center=  1.6D-01, -1.8D+00,  1.2D-01, r^2= 3.0D+01
   Bfn.  Coefficient  Atom+Function         Bfn.  Coefficient  Atom+Function  
  ----- ------------  ---------------      ----- ------------  ---------------
   300     18.707871  18 H  s               234    -11.377804  15 C  py        
   148    -11.262629   9 C  py              226     10.327996  15 C  s         
   174     -9.734731  11 C  s                13     -8.742280   2 C  s         
   310      7.119133  19 C  s                64     -6.116820   5 C  py        
    63     -5.957293   5 C  px              318     -5.392348  19 C  py        

 Vector   75  Occ=0.000000D+00  E= 1.173518D-01
              MO Center= -5.3D-01, -2.1D+00,  4.7D-02, r^2= 2.6D+01
   Bfn.  Coefficient  Atom+Function         Bfn.  Coefficient  Atom+Function  
  ----- ------------  ---------------      ----- ------------  ---------------
   106      9.906163   7 N  s               234      6.446274  15 C  py        
   148      5.594955   9 C  py               56     -5.540827   5 C  s         
   226     -4.815079  15 C  s               310     -4.280662  19 C  s         
   149     -3.992276   9 C  pz              147      3.527946   9 C  px        
   344     -3.477947  21 C  s                63     -2.950014   5 C  px        

 Vector   76  Occ=0.000000D+00  E= 1.234225D-01
              MO Center=  2.6D-01,  7.8D-01,  1.1D-02, r^2= 3.2D+01
   Bfn.  Coefficient  Atom+Function         Bfn.  Coefficient  Atom+Function  
  ----- ------------  ---------------      ----- ------------  ---------------
   421     24.985742  26 C  s               140     -9.394874   9 C  s         
   318     -9.237812  19 C  py              344     -8.977515  21 C  s         
   233      8.136624  15 C  px              284     -7.805483  17 N  py        
   430     -7.277104  26 C  pz              319     -6.928450  19 C  pz        
   226     -6.713063  15 C  s               300     -6.534688  18 H  s         

 Vector   77  Occ=0.000000D+00  E= 1.297906D-01
              MO Center=  5.1D-01, -9.5D-01,  4.9D-01, r^2= 3.1D+01
   Bfn.  Coefficient  Atom+Function         Bfn.  Coefficient  Atom+Function  
  ----- ------------  ---------------      ----- ------------  ---------------
   226      8.587307  15 C  s               106     -7.204762   7 N  s         
   234     -7.001831  15 C  py              421      6.000133  26 C  s         
   310      4.950573  19 C  s               149      4.703898   9 C  pz        
   471     -4.689689  28 N  s                56      4.495328   5 C  s         
   344     -4.254171  21 C  s               334      4.078782  20 H  s         

 Vector   78  Occ=0.000000D+00  E= 1.340733D-01
              MO Center=  8.8D-02, -8.7D-01, -5.8D-01, r^2= 2.7D+01
   Bfn.  Coefficient  Atom+Function         Bfn.  Coefficient  Atom+Function  
  ----- ------------  ---------------      ----- ------------  ---------------
   174     14.668558  11 C  s               226    -13.247221  15 C  s         
   149      8.698314   9 C  pz               56     -8.074442   5 C  s         
   276      6.047326  17 N  s               140     -5.591277   9 C  s         
   198      4.958899  12 H  s               310     -4.858117  19 C  s         
   183      4.536883  11 C  pz              234      4.451308  15 C  py        

 Vector   79  Occ=0.000000D+00  E= 1.394338D-01
              MO Center= -4.4D-01, -1.9D+00,  6.7D-01, r^2= 2.3D+01
   Bfn.  Coefficient  Atom+Function         Bfn.  Coefficient  Atom+Function  
  ----- ------------  ---------------      ----- ------------  ---------------
   174     11.991674  11 C  s               421     10.574043  26 C  s         
   226     -9.613039  15 C  s               234      7.627798  15 C  py        
    64      7.014649   5 C  py              140     -6.642948   9 C  s         
    13      6.533458   2 C  s               344     -5.977406  21 C  s         
   276      5.769221  17 N  s               147      5.417296   9 C  px        

 Vector   80  Occ=0.000000D+00  E= 1.400212D-01
              MO Center= -7.6D-01,  1.3D-01,  3.5D-01, r^2= 3.1D+01
   Bfn.  Coefficient  Atom+Function         Bfn.  Coefficient  Atom+Function  
  ----- ------------  ---------------      ----- ------------  ---------------
   344     13.694220  21 C  s               421    -13.616215  26 C  s         
   300    -10.595809  18 H  s               106     -8.534062   7 N  s         
   317      7.304614  19 C  px               63      7.029328   5 C  px        
   319      6.412246  19 C  pz              276      5.163530  17 N  s         
   351      4.650071  21 C  px              430      4.519373  26 C  pz        

 Vector   81  Occ=0.000000D+00  E= 1.451979D-01
              MO Center= -1.3D-01, -1.6D+00,  8.0D-01, r^2= 3.4D+01
   Bfn.  Coefficient  Atom+Function         Bfn.  Coefficient  Atom+Function  
  ----- ------------  ---------------      ----- ------------  ---------------
   234     10.176881  15 C  py              317     -6.129588  19 C  px        
   471     -6.011101  28 N  s               147      5.761032   9 C  px        
   300     -5.142646  18 H  s               174      5.061637  11 C  s         
   233     -4.864073  15 C  px                3      4.523718   1 H  s         
   428      4.508233  26 C  px              421      4.232725  26 C  s         

 Vector   82  Occ=0.000000D+00  E= 1.467696D-01
              MO Center=  7.2D-01, -4.5D-03, -4.3D-01, r^2= 2.5D+01
   Bfn.  Coefficient  Atom+Function         Bfn.  Coefficient  Atom+Function  
  ----- ------------  ---------------      ----- ------------  ---------------
   276      5.993682  17 N  s               148     -5.017885   9 C  py        
   344     -4.342285  21 C  s               207      3.990700  13 H  s         
   429     -3.950213  26 C  py              233      3.864191  15 C  px        
   318      3.794661  19 C  py              147     -3.332588   9 C  px        
    63     -3.232331   5 C  px              235      3.175225  15 C  pz        

 Vector   83  Occ=0.000000D+00  E= 1.508847D-01
              MO Center= -3.2D-01, -5.3D-01,  2.9D-01, r^2= 3.0D+01
   Bfn.  Coefficient  Atom+Function         Bfn.  Coefficient  Atom+Function  
  ----- ------------  ---------------      ----- ------------  ---------------
   174      9.393480  11 C  s               149      7.667135   9 C  pz        
   471      7.638006  28 N  s               300     -7.363788  18 H  s         
   226     -7.246697  15 C  s               344      7.068534  21 C  s         
    56     -6.272232   5 C  s               421     -6.017987  26 C  s         
   310     -5.809547  19 C  s                63     -5.679302   5 C  px        

 Vector   84  Occ=0.000000D+00  E= 1.519644D-01
              MO Center=  1.8D-02, -2.2D+00,  4.4D-01, r^2= 3.0D+01
   Bfn.  Coefficient  Atom+Function         Bfn.  Coefficient  Atom+Function  
  ----- ------------  ---------------      ----- ------------  ---------------
   421     11.789298  26 C  s               226     -9.476792  15 C  s         
    13      8.082283   2 C  s               471     -7.513793  28 N  s         
    63      7.314376   5 C  px              147      7.000686   9 C  px        
   140     -6.409667   9 C  s               113      6.154633   7 N  px        
   234      5.365877  15 C  py              106      5.335374   7 N  s         

 Vector   85  Occ=0.000000D+00  E= 1.544152D-01
              MO Center=  2.3D-01, -1.0D+00,  3.8D-02, r^2= 3.2D+01
   Bfn.  Coefficient  Atom+Function         Bfn.  Coefficient  Atom+Function  
  ----- ------------  ---------------      ----- ------------  ---------------
   300     17.258458  18 H  s               234    -11.301610  15 C  py        
   174    -10.568221  11 C  s               471      9.599309  28 N  s         
   421     -7.698050  26 C  s               276      7.276886  17 N  s         
   148     -7.166438   9 C  py              233      6.627723  15 C  px        
   183     -5.948476  11 C  pz              226      4.864705  15 C  s         

 Vector   86  Occ=0.000000D+00  E= 1.588490D-01
              MO Center= -1.6D-02, -1.2D+00,  6.8D-01, r^2= 2.6D+01
   Bfn.  Coefficient  Atom+Function         Bfn.  Coefficient  Atom+Function  
  ----- ------------  ---------------      ----- ------------  ---------------
    63      7.041942   5 C  px              113      5.765156   7 N  px        
   471      5.549776  28 N  s                13      5.052968   2 C  s         
   164      4.746701  10 H  s               149     -4.631499   9 C  pz        
   106     -4.568856   7 N  s                56      4.354427   5 C  s         
   310     -4.213499  19 C  s               226     -4.036579  15 C  s         

 Vector   87  Occ=0.000000D+00  E= 1.649993D-01
              MO Center=  8.2D-01, -1.3D+00, -2.6D-01, r^2= 2.3D+01
   Bfn.  Coefficient  Atom+Function         Bfn.  Coefficient  Atom+Function  
  ----- ------------  ---------------      ----- ------------  ---------------
   276      8.260000  17 N  s               233      5.953991  15 C  px        
   226     -5.618043  15 C  s               149      4.929637   9 C  pz        
    56     -4.669703   5 C  s                63     -3.756524   5 C  px        
   198      3.760299  12 H  s               173     -3.549906  11 C  s         
   140     -3.255797   9 C  s               106      3.209911   7 N  s         

 Vector   88  Occ=0.000000D+00  E= 1.698235D-01
              MO Center= -1.0D-01, -1.7D+00,  7.5D-02, r^2= 3.0D+01
   Bfn.  Coefficient  Atom+Function         Bfn.  Coefficient  Atom+Function  
  ----- ------------  ---------------      ----- ------------  ---------------
   226     18.040707  15 C  s                13    -10.821160   2 C  s         
   148     -9.644983   9 C  py              174     -8.891448  11 C  s         
   310      8.741844  19 C  s               344     -8.059751  21 C  s         
    63     -7.696427   5 C  px              140      6.919348   9 C  s         
   130     -5.596634   8 H  s               147     -5.271783   9 C  px        

 Vector   89  Occ=0.000000D+00  E= 1.725225D-01
              MO Center= -1.6D-01,  4.6D-01,  4.7D-01, r^2= 2.2D+01
   Bfn.  Coefficient  Atom+Function         Bfn.  Coefficient  Atom+Function  
  ----- ------------  ---------------      ----- ------------  ---------------
    56      8.268883   5 C  s               234      6.958550  15 C  py        
   300     -6.903717  18 H  s               318      5.324546  19 C  py        
   344     -5.306354  21 C  s                63      4.894136   5 C  px        
   174     -4.494158  11 C  s                13      4.214400   2 C  s         
   351     -4.027130  21 C  px              226      3.926420  15 C  s         

 Vector   90  Occ=0.000000D+00  E= 1.759857D-01
              MO Center= -2.3D-01, -1.4D-01, -8.5D-01, r^2= 2.3D+01
   Bfn.  Coefficient  Atom+Function         Bfn.  Coefficient  Atom+Function  
  ----- ------------  ---------------      ----- ------------  ---------------
   147      9.217381   9 C  px              234      8.434227  15 C  py        
   106      5.271070   7 N  s                65     -4.456562   5 C  pz        
   344      4.144104  21 C  s               233     -4.030944  15 C  px        
   387     -4.001475  24 O  s               164     -3.790819  10 H  s         
    13      3.706417   2 C  s               226     -3.643824  15 C  s         

 Vector   91  Occ=0.000000D+00  E= 1.770077D-01
              MO Center=  1.4D-01,  1.4D-01, -1.3D+00, r^2= 2.9D+01
   Bfn.  Coefficient  Atom+Function         Bfn.  Coefficient  Atom+Function  
  ----- ------------  ---------------      ----- ------------  ---------------
   234     11.711706  15 C  py              318     10.354215  19 C  py        
   233     -7.151895  15 C  px              147      6.519605   9 C  px        
   421     -6.380465  26 C  s                63      6.240304   5 C  px        
   310     -6.236503  19 C  s               148      6.166131   9 C  py        
   471      5.732444  28 N  s                13      5.290004   2 C  s         

 Vector   92  Occ=0.000000D+00  E= 1.816321D-01
              MO Center= -3.9D-01, -1.7D+00, -5.3D-01, r^2= 2.6D+01
   Bfn.  Coefficient  Atom+Function         Bfn.  Coefficient  Atom+Function  
  ----- ------------  ---------------      ----- ------------  ---------------
   106      8.310620   7 N  s               174      8.003746  11 C  s         
   226     -7.571413  15 C  s               276      7.187194  17 N  s         
    56     -6.684419   5 C  s               300      6.396717  18 H  s         
[...]

 Vector  144  Occ=0.000000D+00  E= 4.256106D-01
              MO Center= -6.1D-03, -1.7D+00, -4.9D-03, r^2= 1.8D+01
   Bfn.  Coefficient  Atom+Function         Bfn.  Coefficient  Atom+Function  
  ----- ------------  ---------------      ----- ------------  ---------------
   234      8.356479  15 C  py              106      8.060251   7 N  s         
   148      8.085096   9 C  py              284      5.742935  17 N  py        
   317     -5.539509  19 C  px              344     -5.089538  21 C  s         
   421     -5.018559  26 C  s               113      4.736337   7 N  px        
   215      4.489371  14 H  s               233     -4.506546  15 C  px        

 Vector  145  Occ=0.000000D+00  E= 4.320277D-01
              MO Center= -4.6D-01, -1.7D+00, -2.2D-01, r^2= 2.0D+01
   Bfn.  Coefficient  Atom+Function         Bfn.  Coefficient  Atom+Function  
  ----- ------------  ---------------      ----- ------------  ---------------
   421     13.838545  26 C  s               234    -11.973215  15 C  py        
   344     -8.400173  21 C  s               147     -6.079979   9 C  px        
    63     -5.940728   5 C  px              173      5.850477  11 C  s         
   319     -5.832119  19 C  pz              197     -5.695322  12 H  s         
   233      5.616882  15 C  px               65      5.344169   5 C  pz        

 Vector  146  Occ=0.000000D+00  E= 4.356019D-01
              MO Center=  4.4D-01, -4.7D-01,  7.0D-02, r^2= 2.0D+01
   Bfn.  Coefficient  Atom+Function         Bfn.  Coefficient  Atom+Function  
  ----- ------------  ---------------      ----- ------------  ---------------
   226     16.611034  15 C  s               344    -15.396119  21 C  s         
   317    -12.342561  19 C  px              318      9.619013  19 C  py        
   319     -6.786612  19 C  pz              300     -6.662646  18 H  s         
   310      5.912444  19 C  s               115      5.197941   7 N  pz        
   174     -5.130937  11 C  s                13     -4.953754   2 C  s         

 Vector  147  Occ=0.000000D+00  E= 4.389186D-01
              MO Center=  3.0D-01, -3.0D-01, -1.0D-01, r^2= 1.9D+01
   Bfn.  Coefficient  Atom+Function         Bfn.  Coefficient  Atom+Function  
  ----- ------------  ---------------      ----- ------------  ---------------
   234     16.451015  15 C  py              421    -12.815622  26 C  s         
   276    -12.368208  17 N  s               106     11.477821   7 N  s         
   147     10.413232   9 C  px              233    -10.414967  15 C  px        
   310     -8.617267  19 C  s               140      8.467331   9 C  s         
   318      8.405327  19 C  py              148      7.626191   9 C  py        

 Vector  148  Occ=0.000000D+00  E= 4.473321D-01
              MO Center=  3.7D-01, -3.0D-01,  1.1D-01, r^2= 1.9D+01
   Bfn.  Coefficient  Atom+Function         Bfn.  Coefficient  Atom+Function  
  ----- ------------  ---------------      ----- ------------  ---------------
   421     17.640534  26 C  s               344    -14.367307  21 C  s         
   471    -10.782731  28 N  s               317    -10.114699  19 C  px        
   174     10.009909  11 C  s               106     -7.962049   7 N  s         
   234      7.986065  15 C  py              300     -7.775227  18 H  s         
   226      7.061647  15 C  s               319     -7.054642  19 C  pz        

 Vector  149  Occ=0.000000D+00  E= 4.530440D-01
              MO Center=  4.0D-02, -1.1D+00, -3.7D-01, r^2= 1.9D+01
   Bfn.  Coefficient  Atom+Function         Bfn.  Coefficient  Atom+Function  
  ----- ------------  ---------------      ----- ------------  ---------------
   226     31.499581  15 C  s               174    -22.381462  11 C  s         
   140     14.228078   9 C  s               276    -13.855694  17 N  s         
   234    -13.024398  15 C  py              310     12.709192  19 C  s         
    56     12.034019   5 C  s                13    -10.780979   2 C  s         
   300    -10.255402  18 H  s               344     -9.446567  21 C  s         

 Vector  150  Occ=0.000000D+00  E= 4.585077D-01
              MO Center=  8.3D-01, -5.3D-01, -4.1D-01, r^2= 2.0D+01
   Bfn.  Coefficient  Atom+Function         Bfn.  Coefficient  Atom+Function  
  ----- ------------  ---------------      ----- ------------  ---------------
   344     23.268504  21 C  s               234    -19.507801  15 C  py        
   147    -11.774082   9 C  px              173     11.132337  11 C  s         
   197     -9.618544  12 H  s               300     -9.523063  18 H  s         
   317      9.414648  19 C  px              215     -9.050680  14 H  s         
   106     -8.594408   7 N  s               174      8.395079  11 C  s         

 Vector  151  Occ=0.000000D+00  E= 4.606921D-01
              MO Center=  7.7D-02, -1.2D+00, -3.1D-01, r^2= 1.9D+01
   Bfn.  Coefficient  Atom+Function         Bfn.  Coefficient  Atom+Function  
  ----- ------------  ---------------      ----- ------------  ---------------
   300     11.472609  18 H  s               174     -9.493193  11 C  s         
    56     -9.134539   5 C  s                13     -8.755615   2 C  s         
   276     -7.484456  17 N  s               215      7.083401  14 H  s         
    12     -6.860957   2 C  s                81      6.332467   6 O  s         
   318     -5.979019  19 C  py              173     -5.638560  11 C  s         

 Vector  152  Occ=0.000000D+00  E= 4.658029D-01
              MO Center=  4.7D-01, -6.9D-01, -2.1D-02, r^2= 1.7D+01
   Bfn.  Coefficient  Atom+Function         Bfn.  Coefficient  Atom+Function  
  ----- ------------  ---------------      ----- ------------  ---------------
   226     33.216334  15 C  s               421    -18.453289  26 C  s         
   140     17.841943   9 C  s               276    -15.157981  17 N  s         
   174    -13.800882  11 C  s                13    -10.937247   2 C  s         
    12    -10.342285   2 C  s               106    -10.153520   7 N  s         
   234     -8.340104  15 C  py              251     -7.779174  16 O  s         

 Vector  153  Occ=0.000000D+00  E= 4.688158D-01
              MO Center=  1.0D-01,  2.2D-01,  2.3D-02, r^2= 1.7D+01
   Bfn.  Coefficient  Atom+Function         Bfn.  Coefficient  Atom+Function  
  ----- ------------  ---------------      ----- ------------  ---------------
   234      9.276619  15 C  py              344      8.511002  21 C  s         
   471     -6.636260  28 N  s               276     -6.306772  17 N  s         
   174      6.064234  11 C  s               148      5.690336   9 C  py        
   233     -5.596606  15 C  px              300     -5.352009  18 H  s         
   421     -4.932110  26 C  s               353      4.839977  21 C  pz        

 Vector  154  Occ=0.000000D+00  E= 4.750342D-01
              MO Center=  2.5D-02, -1.3D+00, -2.9D-01, r^2= 1.8D+01
   Bfn.  Coefficient  Atom+Function         Bfn.  Coefficient  Atom+Function  
  ----- ------------  ---------------      ----- ------------  ---------------
   234     12.900966  15 C  py              344    -11.107573  21 C  s         
    13     10.721973   2 C  s               317     -9.815647  19 C  px        
   276      9.458583  17 N  s                63      8.960111   5 C  px        
   113      8.808405   7 N  px              226     -7.141521  15 C  s         
   206      6.526893  13 H  s               106      6.303108   7 N  s         

 Vector  155  Occ=0.000000D+00  E= 4.787143D-01
              MO Center= -4.5D-01,  7.4D-02, -1.6D-01, r^2= 1.8D+01
   Bfn.  Coefficient  Atom+Function         Bfn.  Coefficient  Atom+Function  
  ----- ------------  ---------------      ----- ------------  ---------------
    13     11.376940   2 C  s               318      8.733295  19 C  py        
    63      8.506998   5 C  px              276      8.184746  17 N  s         
   234      7.213860  15 C  py              113      6.295135   7 N  px        
   147      6.258781   9 C  px              421     -6.269840  26 C  s         
   148      6.177245   9 C  py              226     -5.915429  15 C  s         

 Vector  156  Occ=0.000000D+00  E= 4.808482D-01
              MO Center= -2.6D-01,  5.7D-01,  1.8D-01, r^2= 1.9D+01
   Bfn.  Coefficient  Atom+Function         Bfn.  Coefficient  Atom+Function  
  ----- ------------  ---------------      ----- ------------  ---------------
   344      9.082353  21 C  s                13      8.335427   2 C  s         
   226     -7.983946  15 C  s                63      7.736733   5 C  px        
   471      7.756122  28 N  s               300     -7.670205  18 H  s         
   234      6.033004  15 C  py              284     -6.057833  17 N  py        
   106     -5.545219   7 N  s               376     -5.374837  23 H  s         

 Vector  157  Occ=0.000000D+00  E= 4.829572D-01
              MO Center= -3.6D-01, -2.2D-01,  3.2D-02, r^2= 1.9D+01
   Bfn.  Coefficient  Atom+Function         Bfn.  Coefficient  Atom+Function  
  ----- ------------  ---------------      ----- ------------  ---------------
   174     19.946723  11 C  s               344    -17.013193  21 C  s         
   421     14.789333  26 C  s               333      9.856962  20 H  s         
   310     -9.467750  19 C  s               226     -8.453954  15 C  s         
    13      8.091885   2 C  s               376      8.061779  23 H  s         
   234      7.845805  15 C  py              300     -7.784951  18 H  s         

 Vector  158  Occ=0.000000D+00  E= 4.860661D-01
              MO Center=  4.9D-02, -9.9D-01, -3.6D-01, r^2= 1.8D+01
   Bfn.  Coefficient  Atom+Function         Bfn.  Coefficient  Atom+Function  
  ----- ------------  ---------------      ----- ------------  ---------------
   174     28.830009  11 C  s               234     21.100380  15 C  py        
   226    -20.345956  15 C  s               344     11.996564  21 C  s         
   106     11.121837   7 N  s               310    -10.414100  19 C  s         
    13     10.298168   2 C  s               300    -10.109717  18 H  s         
   421     -9.592600  26 C  s               367     -9.385372  22 H  s         

 Vector  159  Occ=0.000000D+00  E= 4.939644D-01
              MO Center=  6.7D-02, -8.8D-01, -1.1D-01, r^2= 1.9D+01
   Bfn.  Coefficient  Atom+Function         Bfn.  Coefficient  Atom+Function  
  ----- ------------  ---------------      ----- ------------  ---------------
   421     18.166633  26 C  s               234    -15.692884  15 C  py        
    12    -11.643216   2 C  s               173     10.593620  11 C  s         
   206     -9.311550  13 H  s               226     -7.526469  15 C  s         
   300     -7.557191  18 H  s               113      7.306129   7 N  px        
   140     -6.443087   9 C  s               318     -6.227894  19 C  py        

 Vector  160  Occ=0.000000D+00  E= 4.995876D-01
              MO Center=  4.4D-02, -2.4D-01, -8.1D-02, r^2= 2.0D+01
   Bfn.  Coefficient  Atom+Function         Bfn.  Coefficient  Atom+Function  
  ----- ------------  ---------------      ----- ------------  ---------------
   226      8.199146  15 C  s               309      5.412383  19 C  s         
   140      5.383734   9 C  s               318      4.560330  19 C  py        
   353      4.573868  21 C  pz              197     -4.238504  12 H  s         
   206     -4.187840  13 H  s               368      4.108668  22 H  s         
   471      4.124025  28 N  s                13     -4.005523   2 C  s         

 Vector  161  Occ=0.000000D+00  E= 5.022354D-01
              MO Center= -7.8D-02, -3.1D-01, -2.5D-01, r^2= 1.7D+01
   Bfn.  Coefficient  Atom+Function         Bfn.  Coefficient  Atom+Function  
  ----- ------------  ---------------      ----- ------------  ---------------
   283      8.354515  17 N  px              367      7.846908  22 H  s         
   139      7.077644   9 C  s               343     -6.799209  21 C  s         
   174      5.806809  11 C  s               421      5.245459  26 C  s         
   140     -4.930039   9 C  s               106     -4.092534   7 N  s         
   276      3.677990  17 N  s                81      3.614654   6 O  s         


 center of mass
 --------------
 x =   0.01129657 y =   0.09481352 z =   0.00366063

 moments of inertia (a.u.)
 ------------------
        4973.247420229100          -0.000000000001           0.000000000000
          -0.000000000001        2177.680088182874           0.000000000000
           0.000000000000           0.000000000000        5552.131986662377

  Mulliken analysis of the total density
  --------------------------------------

    Atom       Charge   Shell Charges
 -----------   ------   -------------------------------------------------------
    1 H    1     0.90   0.76  0.17 -0.00  0.03 -0.06
    2 C    6     6.07   2.01  0.66  0.20 -0.01  2.07  1.00 -0.00  0.06  0.08
    3 H    1     0.86   0.76  0.13 -0.01  0.03 -0.06
    4 H    1     1.00   0.76  0.24  0.01  0.03 -0.04
    5 C    6     5.14   2.01  0.68  0.09  0.05  1.89  0.32 -0.08  0.24 -0.06
    6 O    8     8.77   2.01  0.82  1.00  0.15  2.80  1.87  0.12  0.02 -0.01
    7 N    7     7.33   2.01  0.72  0.82 -0.22  2.45  1.44  0.02  0.05  0.04
    8 H    1     1.07   0.77  0.27 -0.01  0.05 -0.01
    9 C    6     6.65   2.01  0.66  0.19  0.03  1.99  1.53 -0.03  0.14  0.14
   10 H    1     1.18   0.78  0.37  0.02  0.03 -0.02
   11 C    6     5.66   2.01  0.66  0.29  0.14  2.04  0.45 -0.04  0.07  0.02
   12 H    1     0.98   0.77  0.26  0.00  0.03 -0.08
   13 H    1     0.95   0.77  0.18  0.03  0.03 -0.06
   14 H    1     0.92   0.77  0.20  0.00  0.03 -0.08
   15 C    6     4.76   2.01  0.68 -0.06  0.08  1.88  0.05  0.21  0.23 -0.33
   16 O    8     8.86   2.01  0.82  1.03  0.18  2.80  1.86  0.16  0.01 -0.00
   17 N    7     7.48   2.01  0.72  0.84 -0.16  2.45  1.45  0.07  0.05  0.06
   18 H    1     0.85   0.73  0.32 -0.09  0.06 -0.17
   19 C    6     6.24   2.01  0.67 -0.02 -0.02  2.00  1.37  0.04  0.13  0.06
   20 H    1     1.01   0.78  0.19 -0.01  0.03  0.02
   21 C    6     5.18   2.01  0.67  0.19  0.03  1.96  0.24 -0.04  0.14 -0.01
   22 H    1     1.02   0.79  0.30  0.01  0.03 -0.09
   23 H    1     0.98   0.79  0.19  0.02  0.03 -0.04
   24 O    8     8.64   2.01  0.80  0.97  0.05  2.82  1.90  0.11  0.01 -0.03
   25 H    1     0.87   0.70  0.06 -0.00  0.08  0.03
   26 C    6     4.64   2.01  0.68  0.03  0.09  1.88 -0.09 -0.05  0.23 -0.15
   27 O    8     8.81   2.01  0.82  1.03  0.16  2.80  1.85  0.14  0.01 -0.00
   28 N    7     7.25   2.01  0.72  0.84 -0.15  2.47  1.27  0.08  0.04 -0.02
   29 H    1     1.03   0.76  0.24 -0.00  0.05 -0.03
   30 H    1     0.90   0.73  0.19 -0.01  0.06 -0.07

       Multipole analysis of the density wrt the origin
       ------------------------------------------------

     L   x y z        total         open         nuclear
     -   - - -        -----         ----         -------
     0   0 0 0     -0.000000      0.000000    116.000000

     1   1 0 0      0.572501      0.000000     -0.000000
     1   0 1 0     -3.086754      0.000000      0.000000
     1   0 0 1      1.166026      0.000000      0.000000

     2   2 0 0    -72.427313      0.000000    765.973801
     2   1 1 0      3.841067      0.000000      5.606908
     2   1 0 1     -0.653198      0.000000    -11.546898
     2   0 2 0    -67.058575      0.000000   2281.406597
     2   0 1 1     -2.872826      0.000000     -9.622879
     2   0 0 2    -64.899678      0.000000    464.128256


 Task  times  cpu:     3378.5s     wall:     3446.0s


                                NWChem Input Module
                                -------------------


 Summary of allocated global arrays
-----------------------------------
  No active global arrays


MA_summarize_allocated_blocks: starting scan ...
MA_summarize_allocated_blocks: scan completed: 0 heap blocks, 0 stack blocks
MA usage statistics:

	allocation statistics:
					      heap	     stack
					      ----	     -----
	current number of blocks	         0	         0
	maximum number of blocks	        16	        14
	current total bytes		         0	         0
	maximum total bytes		    107296	  24874808
	maximum total K-bytes		       108	     24875
	maximum total M-bytes		         1	        25


                                     CITATION
                                     --------
                Please cite the following reference when publishing
                           results obtained with NWChem:

          E. Apra, E. J. Bylaska, W. A. de Jong, N. Govind, K. Kowalski,
       T. P. Straatsma, M. Valiev, H. J. J. van Dam, Y. Alexeev, J. Anchell,
       V. Anisimov, F. W. Aquino, R. Atta-Fynn, J. Autschbach, N. P. Bauman,
     J. C. Becca, D. E. Bernholdt, K. Bhaskaran-Nair, S. Bogatko, P. Borowski,
         J. Boschen, J. Brabec, A. Bruner, E. Cauet, Y. Chen, G. N. Chuev,
      C. J. Cramer, J. Daily, M. J. O. Deegan, T. H. Dunning Jr., M. Dupuis,
   K. G. Dyall, G. I. Fann, S. A. Fischer, A. Fonari, H. Fruchtl, L. Gagliardi,
      J. Garza, N. Gawande, S. Ghosh, K. Glaesemann, A. W. Gotz, J. Hammond,
       V. Helms, E. D. Hermes, K. Hirao, S. Hirata, M. Jacquelin, L. Jensen,
   B. G. Johnson, H. Jonsson, R. A. Kendall, M. Klemm, R. Kobayashi, V. Konkov,
      S. Krishnamoorthy, M. Krishnan, Z. Lin, R. D. Lins, R. J. Littlefield,
      A. J. Logsdail, K. Lopata, W. Ma, A. V. Marenich, J. Martin del Campo,
   D. Mejia-Rodriguez, J. E. Moore, J. M. Mullin, T. Nakajima, D. R. Nascimento,
    J. A. Nichols, P. J. Nichols, J. Nieplocha, A. Otero-de-la-Roza, B. Palmer,
    A. Panyala, T. Pirojsirikul, B. Peng, R. Peverati, J. Pittner, L. Pollack,
   R. M. Richard, P. Sadayappan, G. C. Schatz, W. A. Shelton, D. W. Silverstein,
   D. M. A. Smith, T. A. Soares, D. Song, M. Swart, H. L. Taylor, G. S. Thomas,
            V. Tipparaju, D. G. Truhlar, K. Tsemekhman, T. Van Voorhis,
      A. Vazquez-Mayagoitia, P. Verma, O. Villa, A. Vishnu, K. D. Vogiatzis,
        D. Wang, J. H. Weare, M. J. Williamson, T. L. Windus, K. Wolinski,
        A. T. Wong, Q. Wu, C. Yang, Q. Yu, M. Zacharias, Z. Zhang, Y. Zhao,
                                and R. J. Harrison
                        "NWChem: Past, present, and future
                         J. Chem. Phys. 152, 184102 (2020)
                               doi:10.1063/5.0004997

                                      AUTHORS
                                      -------
  E. Apra, E. J. Bylaska, N. Govind, K. Kowalski, M. Valiev, D. Mejia-Rodriguez,
       A. Kunitsa, N. P. Bauman, A. Panyala, W. A. de Jong, T. P. Straatsma,
   H. J. J. van Dam, D. Wang, T. L. Windus, J. Hammond, J. Autschbach, A. Woods,
    K. Bhaskaran-Nair, J. Brabec, K. Lopata, S. A. Fischer, S. Krishnamoorthy,
     M. Jacquelin, W. Ma, M. Klemm, O. Villa, Y. Chen, V. Anisimov, F. Aquino,
     S. Hirata, M. T. Hackler, E. Hermes, L. Jensen, J. E. Moore, J. C. Becca,
      V. Konjkov, T. Risthaus, M. Malagoli, A. Marenich, A. Otero-de-la-Roza,
        J. Mullin, P. Nichols, R. Peverati, J. Pittner, Y. Zhao, P.-D. Fan,
        A. Fonari, M. J. Williamson, R. J. Harrison, J. R. Rehr, M. Dupuis,
     D. Silverstein, D. M. A. Smith, J. Nieplocha, V. Tipparaju, M. Krishnan,
     B. E. Van Kuiken, A. Vazquez-Mayagoitia, M. Swart, Q. Wu, T. Van Voorhis,
     A. A. Auer, M. Nooijen, L. D. Crosby, E. Brown, G. Cisneros, G. I. Fann,
   H. Fruchtl, J. Garza, K. Hirao, R. A. Kendall, J. A. Nichols, K. Tsemekhman,
    K. Wolinski, J. Anchell, D. E. Bernholdt, P. Borowski, T. Clark, D. Clerc,
   H. Dachsel, M. J. O. Deegan, K. Dyall, D. Elwood, E. Glendening, M. Gutowski,
   A. C. Hess, J. Jaffe, B. G. Johnson, J. Ju, R. Kobayashi, R. Kutteh, Z. Lin,
   R. Littlefield, X. Long, B. Meng, T. Nakajima, S. Niu, L. Pollack, M. Rosing,
   K. Glaesemann, G. Sandrone, M. Stave, H. Taylor, G. Thomas, J. H. van Lenthe,
                               A. T. Wong, Z. Zhang.

 Total times  cpu:     3378.6s     wall:     3446.7s
