export TMOUT=5400
export TMPDIR=/tmp
export PTMPDIR=/tmp/ptmp
 argument  1 = ALA_TRP_4.nw
                                         
                                         


             Northwest Computational Chemistry Package (NWChem) 7.2.0
             --------------------------------------------------------


                    Environmental Molecular Sciences Laboratory
                       Pacific Northwest National Laboratory
                                Richland, WA 99352

                              Copyright (c) 1994-2022
                       Pacific Northwest National Laboratory
                            Battelle Memorial Institute

             NWChem is an open-source computational chemistry package
                        distributed under the terms of the
                      Educational Community License (ECL) 2.0
             A copy of the license is included with this distribution
                              in the LICENSE.TXT file

                                  ACKNOWLEDGMENT
                                  --------------

            This software and its documentation were developed at the
            EMSL at Pacific Northwest National Laboratory, a multiprogram
            national laboratory, operated for the U.S. Department of Energy
            by Battelle under Contract Number DE-AC05-76RL01830. Support
            for this work was provided by the Department of Energy Office
            of Biological and Environmental Research, Office of Basic
            Energy Sciences, and the Office of Advanced Scientific Computing.


           Job information
           ---------------

    hostname        = nova18-57
    program         = /opt/rit/el9/20230413/app/linux-rhel9-x86_64_v3/gcc-11.2.1/nwchem-7.2.0-oxtctbuhfuzyfaoziquq6bki22grib3g/bin/nwchem
    date            = Mon Jun 30 20:39:15 2025

    compiled        = Wed_May_17_23:46:39_2023
    source          = /tmp/root/spack-stage/spack-stage-nwchem-7.2.0-oxtctbuhfuzyfaoziquq6bki22grib3g/spack-src
    nwchem branch   = 7.2.0
    nwchem revision = d0d141fd
    ga revision     = 5.8.0
    use scalapack   = T
    input           = ALA_TRP_4.nw
    prefix          = ALA_TRP_4.
    data base       = ./ALA_TRP_4.db
    status          = startup
    nproc           =        1
    time left       =     -1s



           Memory information
           ------------------

    heap     =   26214394 doubles =    200.0 Mbytes
    stack    =   26214399 doubles =    200.0 Mbytes
    global   =   52428800 doubles =    400.0 Mbytes (distinct from heap & stack)
    total    =  104857593 doubles =    800.0 Mbytes
    verify   = yes
    hardfail = no 


           Directory information
           ---------------------

  0 permanent = .
  0 scratch   = .




                                NWChem Input Module
                                -------------------



 Scaling coordinates for geometry "geometry" by  1.889725989
 (inverse scale =  0.529177249)

 C1  symmetry detected

          ------
          auto-z
          ------
  no constraints, skipping    0.0000000000000000     
  no constraints, skipping    0.0000000000000000     


                             Geometry "geometry" -> ""
                             -------------------------

 Output coordinates in angstroms (scale by  1.889725989 to convert to a.u.)

  No.       Tag          Charge          X              Y              Z
 ---- ---------------- ---------- -------------- -------------- --------------
    1 H                    1.0000     2.99439963    -5.09721749     0.47540206
    2 C                    6.0000     2.65441782    -4.24649350     1.06416608
    3 H                    1.0000     3.51534622    -3.66803364     1.39782831
    4 H                    1.0000     2.09247072    -4.59462460     1.92903497
    5 C                    6.0000     1.77173091    -3.36740603     0.21202112
    6 O                    8.0000     2.07729853    -2.19844441     0.00829050
    7 N                    7.0000     0.66847665    -3.92574452    -0.28163581
    8 H                    1.0000     0.48190125    -4.88809147    -0.05457643
    9 C                    6.0000    -0.31736631    -3.22986272    -1.11527373
   10 H                    1.0000     0.22141291    -2.61706072    -1.84023350
   11 C                    6.0000    -1.10932134    -4.28735951    -1.89856281
   12 H                    1.0000    -0.43094222    -4.89692392    -2.49588935
   13 H                    1.0000    -1.66234791    -4.92829608    -1.20959552
   14 H                    1.0000    -1.81897480    -3.79354066    -2.56374919
   15 C                    6.0000    -1.21559166    -2.27071646    -0.29679302
   16 O                    8.0000    -2.41806407    -2.48241033    -0.17012885
   17 N                    7.0000    -0.62344384    -1.22136299     0.28164301
   18 H                    1.0000     0.37903533    -1.12445907     0.16153409
   19 C                    6.0000    -1.29961896    -0.25104429     1.15916500
   20 H                    1.0000    -1.86173601    -0.80227626     1.91527725
   21 C                    6.0000    -0.22433528     0.58230848     1.87462091
   22 H                    1.0000    -0.71829872     1.26761045     2.56451461
   23 H                    1.0000     0.38908917    -0.08891094     2.47726918
   24 C                    6.0000     0.68099483     1.38723124     0.98494302
   25 C                    6.0000     1.92095061     1.01498770     0.59319000
   26 H                    1.0000     2.41554269     0.09720685     0.88807809
   27 N                    7.0000     2.45143383     1.97109507    -0.24925420
   28 H                    1.0000     3.36729765     1.89535060    -0.66649662
   29 C                    6.0000     1.57884081     3.01912080    -0.44145070
   30 C                    6.0000     1.65665205     4.20018473    -1.19520092
   31 H                    1.0000     2.53946625     4.41941255    -1.77717364
   32 C                    6.0000     0.57378146     5.09429487    -1.17642981
   33 H                    1.0000     0.61482683     6.01110947    -1.74865990
   34 C                    6.0000    -0.56500932     4.79840250    -0.40528115
   35 H                    1.0000    -1.39554828     5.48959725    -0.38681890
   36 C                    6.0000    -0.63056621     3.60805169     0.34721022
   37 H                    1.0000    -1.51035372     3.40065263     0.94049308
   38 C                    6.0000     0.43613370     2.68130597     0.34426401
   39 C                    6.0000    -2.31976227     0.66260860     0.45124197
   40 O                    8.0000    -3.10562144     1.33397709     1.10809410
   41 N                    7.0000    -2.33819175     0.72205771    -0.87450731
   42 H                    1.0000    -3.01042362     1.32817859    -1.31358336
   43 H                    1.0000    -1.69057685     0.16933627    -1.40740219

      Atomic Mass 
      ----------- 

      H                  1.007825
      C                 12.000000
      O                 15.994910
      N                 14.003070


 Effective nuclear repulsion energy (a.u.)    1974.9047917583

            Nuclear Dipole moment (a.u.) 
            ----------------------------
        X                 Y               Z
 ---------------- ---------------- ----------------
    -0.0000000000     0.0000000000     0.0000000000



                                Z-matrix (autoz)
                                -------- 

 Units are Angstrom for bonds and degrees for angles

      Type          Name      I     J     K     L     M      Value
      ----------- --------  ----- ----- ----- ----- ----- ----------
    1 Stretch                  1     2                       1.08902
    2 Stretch                  2     3                       1.08956
    3 Stretch                  2     4                       1.08857
    4 Stretch                  2     5                       1.50933
    5 Stretch                  5     6                       1.22530
    6 Stretch                  5     7                       1.33139
    7 Stretch                  7     8                       1.00622
    8 Stretch                  7     9                       1.46666
    9 Stretch                  9    10                       1.09150
   10 Stretch                  9    11                       1.53591
   11 Stretch                  9    15                       1.54812
   12 Stretch                 11    12                       1.09021
   13 Stretch                 11    13                       1.09147
   14 Stretch                 11    14                       1.09084
   15 Stretch                 15    16                       1.22752
   16 Stretch                 15    17                       1.33655
   17 Stretch                 17    18                       1.01429
   18 Stretch                 17    19                       1.47268
   19 Stretch                 19    20                       1.09158
   20 Stretch                 19    21                       1.53707
   21 Stretch                 19    39                       1.54163
   22 Stretch                 21    22                       1.09068
   23 Stretch                 21    23                       1.09088
   24 Stretch                 21    24                       1.50301
   25 Stretch                 24    25                       1.35260
   26 Stretch                 24    38                       1.46460
   27 Stretch                 25    26                       1.08347
   28 Stretch                 25    27                       1.38031
   29 Stretch                 27    28                       1.00927
   30 Stretch                 27    29                       1.37721
   31 Stretch                 29    30                       1.40325
   32 Stretch                 29    38                       1.42732
   33 Stretch                 30    31                       1.07987
   34 Stretch                 30    32                       1.40442
   35 Stretch                 32    33                       1.08152
   36 Stretch                 32    34                       1.40679
   37 Stretch                 34    35                       1.08069
   38 Stretch                 34    36                       1.40978
   39 Stretch                 36    37                       1.08121
   40 Stretch                 36    38                       1.41305
   41 Stretch                 39    40                       1.22465
   42 Stretch                 39    41                       1.32721
   43 Stretch                 41    42                       1.00601
   44 Stretch                 41    43                       1.00443
   45 Bend                     1     2     3               109.48865
   46 Bend                     1     2     4               109.92993
   47 Bend                     1     2     5               109.41020
   48 Bend                     2     5     6               120.24422
   49 Bend                     2     5     7               116.72406
   50 Bend                     3     2     4               109.53520
   51 Bend                     3     2     5               109.01261
   52 Bend                     4     2     5               109.44675
   53 Bend                     5     7     8               118.10307
   54 Bend                     5     7     9               124.66418
   55 Bend                     6     5     7               123.03036
   56 Bend                     7     9    10               108.18625
   57 Bend                     7     9    11               108.04597
   58 Bend                     7     9    15               112.54744
   59 Bend                     8     7     9               117.21983
   60 Bend                     9    11    12               110.09258
   61 Bend                     9    11    13               110.09947
   62 Bend                     9    11    14               109.55665
   63 Bend                     9    15    16               121.06923
   64 Bend                     9    15    17               117.26971
   65 Bend                    10     9    11               107.59867
   66 Bend                    10     9    15               106.84054
   67 Bend                    11     9    15               113.39253
   68 Bend                    12    11    13               109.43862
   69 Bend                    12    11    14               108.89367
   70 Bend                    13    11    14               108.73104
   71 Bend                    15    17    18               117.49324
   72 Bend                    15    17    19               124.87313
   73 Bend                    16    15    17               121.65102
   74 Bend                    17    19    20               108.44907
   75 Bend                    17    19    21               108.26294
   76 Bend                    17    19    39               114.87852
   77 Bend                    18    17    19               117.47836
   78 Bend                    19    21    22               108.55722
   79 Bend                    19    21    23               108.47727
   80 Bend                    19    21    24               115.86221
   81 Bend                    19    39    40               120.21438
   82 Bend                    19    39    41               119.63254
   83 Bend                    20    19    21               108.15673
   84 Bend                    20    19    39               106.05743
   85 Bend                    21    19    39               110.81497
   86 Bend                    21    24    25               125.18631
   87 Bend                    21    24    38               129.15475
   88 Bend                    22    21    23               106.96827
   89 Bend                    22    21    24               108.10265
   90 Bend                    23    21    24               108.53088
   91 Bend                    24    25    26               124.94331
   92 Bend                    24    25    27               109.78282
   93 Bend                    24    38    29               108.42581
   94 Bend                    24    38    36               134.81184
   95 Bend                    25    24    38               105.64819
   96 Bend                    25    27    28               123.30403
   97 Bend                    25    27    29               111.64034
   98 Bend                    26    25    27               125.26951
   99 Bend                    27    29    30               132.86819
  100 Bend                    27    29    38               104.49668
  101 Bend                    28    27    29               125.05551
  102 Bend                    29    30    31               120.37689
  103 Bend                    29    30    32               119.07165
  104 Bend                    29    38    36               116.76203
  105 Bend                    30    29    38               122.63506
  106 Bend                    30    32    33               120.22207
  107 Bend                    30    32    34               119.83987
  108 Bend                    31    30    32               120.55078
  109 Bend                    32    34    35               119.79898
  110 Bend                    32    34    36               120.51911
  111 Bend                    33    32    34               119.93736
  112 Bend                    34    36    37               119.51753
  113 Bend                    34    36    38               121.16804
  114 Bend                    35    34    36               119.68171
  115 Bend                    37    36    38               119.31404
  116 Bend                    39    41    42               118.17959
  117 Bend                    39    41    43               119.75936
  118 Bend                    40    39    41               120.15248
  119 Bend                    42    41    43               122.06105
  120 Torsion                  1     2     5     6        -120.22262
  121 Torsion                  1     2     5     7          60.18824
  122 Torsion                  2     5     7     8           0.59199
  123 Torsion                  2     5     7     9         179.24554
  124 Torsion                  3     2     5     6          -0.51676
  125 Torsion                  3     2     5     7         179.89409
  126 Torsion                  4     2     5     6         119.26764
  127 Torsion                  4     2     5     7         -60.32151
  128 Torsion                  5     7     9    10          42.54306
  129 Torsion                  5     7     9    11         158.75822
  130 Torsion                  5     7     9    15         -75.26916
  131 Torsion                  6     5     7     8        -178.98466
  132 Torsion                  6     5     7     9          -0.33111
  133 Torsion                  7     9    11    12         -57.59413
  134 Torsion                  7     9    11    13          63.15004
  135 Torsion                  7     9    11    14        -177.31998
  136 Torsion                  7     9    15    16        -113.86794
  137 Torsion                  7     9    15    17          64.99778
  138 Torsion                  8     7     9    10        -138.79255
  139 Torsion                  8     7     9    11         -22.57739
  140 Torsion                  8     7     9    15         103.39523
  141 Torsion                  9    15    17    18          -0.90322
  142 Torsion                  9    15    17    19        -176.24617
  143 Torsion                 10     9    11    12          59.00308
  144 Torsion                 10     9    11    13         179.74724
  145 Torsion                 10     9    11    14         -60.72277
  146 Torsion                 10     9    15    16         127.52813
  147 Torsion                 10     9    15    17         -53.60615
  148 Torsion                 11     9    15    16           9.16073
  149 Torsion                 11     9    15    17        -171.97355
  150 Torsion                 12    11     9    15         176.93131
  151 Torsion                 13    11     9    15         -62.32453
  152 Torsion                 14    11     9    15          57.20546
  153 Torsion                 15    17    19    20          49.46623
  154 Torsion                 15    17    19    21         166.59656
  155 Torsion                 15    17    19    39         -68.96584
  156 Torsion                 16    15    17    18         177.95546
  157 Torsion                 16    15    17    19           2.61251
  158 Torsion                 17    19    21    22        -177.10946
  159 Torsion                 17    19    21    23         -61.21224
  160 Torsion                 17    19    21    24          61.08897
  161 Torsion                 17    19    39    40         166.95738
  162 Torsion                 17    19    39    41         -13.32249
  163 Torsion                 18    17    19    20        -125.87735
  164 Torsion                 18    17    19    21          -8.74703
  165 Torsion                 18    17    19    39         115.69057
  166 Torsion                 19    21    24    25         -98.28130
  167 Torsion                 19    21    24    38          80.35076
  168 Torsion                 19    39    41    42        -179.75872
  169 Torsion                 19    39    41    43           0.23942
  170 Torsion                 20    19    21    22         -59.79118
  171 Torsion                 20    19    21    23          56.10605
  172 Torsion                 20    19    21    24         178.40726
  173 Torsion                 20    19    39    40          47.19065
  174 Torsion                 20    19    39    41        -133.08923
  175 Torsion                 21    19    39    40         -69.96010
  176 Torsion                 21    19    39    41         109.76003
  177 Torsion                 21    24    25    26          -1.02897
  178 Torsion                 21    24    25    27         178.24426
  179 Torsion                 21    24    38    29        -178.02847
  180 Torsion                 21    24    38    36           2.19202
  181 Torsion                 22    21    19    39          56.06374
  182 Torsion                 22    21    24    25         139.67539
  183 Torsion                 22    21    24    38         -41.69255
  184 Torsion                 23    21    19    39         171.96096
  185 Torsion                 23    21    24    25          23.99151
  186 Torsion                 23    21    24    38        -157.37643
  187 Torsion                 24    21    19    39         -65.73783
  188 Torsion                 24    25    27    28        -179.60666
  189 Torsion                 24    25    27    29           0.27202
  190 Torsion                 24    38    29    27          -0.64096
  191 Torsion                 24    38    29    30         179.44292
  192 Torsion                 24    38    36    34        -179.53286
  193 Torsion                 24    38    36    37           0.69202
  194 Torsion                 25    24    38    29           0.81053
  195 Torsion                 25    24    38    36        -178.96898
  196 Torsion                 25    27    29    30        -179.84642
  197 Torsion                 25    27    29    38           0.24996
  198 Torsion                 26    25    24    38        -179.92741
  199 Torsion                 26    25    27    28          -0.33635
  200 Torsion                 26    25    27    29         179.54233
  201 Torsion                 27    25    24    38          -0.65419
  202 Torsion                 27    29    30    31           0.12077
  203 Torsion                 27    29    30    32        -179.58103
  204 Torsion                 27    29    38    36         179.18385
  205 Torsion                 28    27    29    30           0.02971
  206 Torsion                 28    27    29    38        -179.87391
  207 Torsion                 29    30    32    33         179.86150
  208 Torsion                 29    30    32    34           0.16641
  209 Torsion                 29    38    36    34           0.70142
  210 Torsion                 29    38    36    37        -179.07370
  211 Torsion                 30    29    38    36          -0.73226
  212 Torsion                 30    32    34    35         179.64846
  213 Torsion                 30    32    34    36          -0.18799
  214 Torsion                 31    30    29    38        -179.99004
  215 Torsion                 31    30    32    33           0.16024
  216 Torsion                 31    30    32    34        -179.53485
  217 Torsion                 32    30    29    38           0.30817
  218 Torsion                 32    34    36    37         179.50879
  219 Torsion                 32    34    36    38          -0.26588
  220 Torsion                 33    32    34    35          -0.04751
  221 Torsion                 33    32    34    36        -179.88396
  222 Torsion                 35    34    36    37          -0.32785
  223 Torsion                 35    34    36    38         179.89748
  224 Torsion                 40    39    41    42          -0.03842
  225 Torsion                 40    39    41    43         179.95972


            XYZ format geometry
            -------------------
    43
 geometry
 H                     2.99439963    -5.09721749     0.47540206
 C                     2.65441782    -4.24649350     1.06416608
 H                     3.51534622    -3.66803364     1.39782831
 H                     2.09247072    -4.59462460     1.92903497
 C                     1.77173091    -3.36740603     0.21202112
 O                     2.07729853    -2.19844441     0.00829050
 N                     0.66847665    -3.92574452    -0.28163581
 H                     0.48190125    -4.88809147    -0.05457643
 C                    -0.31736631    -3.22986272    -1.11527373
 H                     0.22141291    -2.61706072    -1.84023350
 C                    -1.10932134    -4.28735951    -1.89856281
 H                    -0.43094222    -4.89692392    -2.49588935
 H                    -1.66234791    -4.92829608    -1.20959552
 H                    -1.81897480    -3.79354066    -2.56374919
 C                    -1.21559166    -2.27071646    -0.29679302
 O                    -2.41806407    -2.48241033    -0.17012885
 N                    -0.62344384    -1.22136299     0.28164301
 H                     0.37903533    -1.12445907     0.16153409
 C                    -1.29961896    -0.25104429     1.15916500
 H                    -1.86173601    -0.80227626     1.91527725
 C                    -0.22433528     0.58230848     1.87462091
 H                    -0.71829872     1.26761045     2.56451461
 H                     0.38908917    -0.08891094     2.47726918
 C                     0.68099483     1.38723124     0.98494302
 C                     1.92095061     1.01498770     0.59319000
 H                     2.41554269     0.09720685     0.88807809
 N                     2.45143383     1.97109507    -0.24925420
 H                     3.36729765     1.89535060    -0.66649662
 C                     1.57884081     3.01912080    -0.44145070
 C                     1.65665205     4.20018473    -1.19520092
 H                     2.53946625     4.41941255    -1.77717364
 C                     0.57378146     5.09429487    -1.17642981
 H                     0.61482683     6.01110947    -1.74865990
 C                    -0.56500932     4.79840250    -0.40528115
 H                    -1.39554828     5.48959725    -0.38681890
 C                    -0.63056621     3.60805169     0.34721022
 H                    -1.51035372     3.40065263     0.94049308
 C                     0.43613370     2.68130597     0.34426401
 C                    -2.31976227     0.66260860     0.45124197
 O                    -3.10562144     1.33397709     1.10809410
 N                    -2.33819175     0.72205771    -0.87450731
 H                    -3.01042362     1.32817859    -1.31358336
 H                    -1.69057685     0.16933627    -1.40740219

 ==============================================================================
                                internuclear distances
 ------------------------------------------------------------------------------
       center one      |      center two      | atomic units |  angstroms
 ------------------------------------------------------------------------------
    2 C                |   1 H                |     2.05795  |     1.08902
    3 H                |   2 C                |     2.05897  |     1.08956
    4 H                |   2 C                |     2.05709  |     1.08857
    5 C                |   2 C                |     2.85222  |     1.50933
    6 O                |   5 C                |     2.31547  |     1.22530
    7 N                |   5 C                |     2.51597  |     1.33139
    8 H                |   7 N                |     1.90148  |     1.00622
    9 C                |   7 N                |     2.77158  |     1.46666
   10 H                |   9 C                |     2.06264  |     1.09150
   11 C                |   9 C                |     2.90246  |     1.53591
   12 H                |  11 C                |     2.06021  |     1.09021
   13 H                |  11 C                |     2.06259  |     1.09147
   14 H                |  11 C                |     2.06139  |     1.09084
   15 C                |   9 C                |     2.92553  |     1.54812
   16 O                |  15 C                |     2.31967  |     1.22752
   17 N                |  15 C                |     2.52572  |     1.33655
   18 H                |  17 N                |     1.91673  |     1.01429
   19 C                |  17 N                |     2.78296  |     1.47268
   20 H                |  19 C                |     2.06278  |     1.09158
   21 C                |  19 C                |     2.90464  |     1.53707
   22 H                |  21 C                |     2.06109  |     1.09068
   23 H                |  21 C                |     2.06146  |     1.09088
   24 C                |  21 C                |     2.84028  |     1.50301
   25 C                |  24 C                |     2.55604  |     1.35260
   26 H                |  25 C                |     2.04746  |     1.08347
   27 N                |  25 C                |     2.60841  |     1.38031
   28 H                |  27 N                |     1.90725  |     1.00927
   29 C                |  27 N                |     2.60256  |     1.37721
   30 C                |  29 C                |     2.65175  |     1.40325
   31 H                |  30 C                |     2.04065  |     1.07987
   32 C                |  30 C                |     2.65397  |     1.40442
   33 H                |  32 C                |     2.04377  |     1.08152
   34 C                |  32 C                |     2.65845  |     1.40679
   35 H                |  34 C                |     2.04220  |     1.08069
   36 C                |  34 C                |     2.66410  |     1.40978
   37 H                |  36 C                |     2.04320  |     1.08121
   38 C                |  24 C                |     2.76769  |     1.46460
   38 C                |  29 C                |     2.69725  |     1.42732
   38 C                |  36 C                |     2.67028  |     1.41305
   39 C                |  19 C                |     2.91325  |     1.54163
   40 O                |  39 C                |     2.31425  |     1.22465
   41 N                |  39 C                |     2.50806  |     1.32721
   42 H                |  41 N                |     1.90109  |     1.00601
   43 H                |  41 N                |     1.89810  |     1.00443
 ------------------------------------------------------------------------------
                         number of included internuclear distances:         44
 ==============================================================================



 ==============================================================================
                                 internuclear angles
 ------------------------------------------------------------------------------
        center 1       |       center 2       |       center 3       |  degrees
 ------------------------------------------------------------------------------
    1 H                |   2 C                |   3 H                |   109.49
    1 H                |   2 C                |   4 H                |   109.93
    1 H                |   2 C                |   5 C                |   109.41
    3 H                |   2 C                |   4 H                |   109.54
    3 H                |   2 C                |   5 C                |   109.01
    4 H                |   2 C                |   5 C                |   109.45
    2 C                |   5 C                |   6 O                |   120.24
    2 C                |   5 C                |   7 N                |   116.72
    6 O                |   5 C                |   7 N                |   123.03
    5 C                |   7 N                |   8 H                |   118.10
    5 C                |   7 N                |   9 C                |   124.66
    8 H                |   7 N                |   9 C                |   117.22
    7 N                |   9 C                |  10 H                |   108.19
    7 N                |   9 C                |  11 C                |   108.05
    7 N                |   9 C                |  15 C                |   112.55
   10 H                |   9 C                |  11 C                |   107.60
   10 H                |   9 C                |  15 C                |   106.84
   11 C                |   9 C                |  15 C                |   113.39
    9 C                |  11 C                |  12 H                |   110.09
    9 C                |  11 C                |  13 H                |   110.10
    9 C                |  11 C                |  14 H                |   109.56
   12 H                |  11 C                |  13 H                |   109.44
   12 H                |  11 C                |  14 H                |   108.89
   13 H                |  11 C                |  14 H                |   108.73
    9 C                |  15 C                |  16 O                |   121.07
    9 C                |  15 C                |  17 N                |   117.27
   16 O                |  15 C                |  17 N                |   121.65
   15 C                |  17 N                |  18 H                |   117.49
   15 C                |  17 N                |  19 C                |   124.87
   18 H                |  17 N                |  19 C                |   117.48
   17 N                |  19 C                |  20 H                |   108.45
   17 N                |  19 C                |  21 C                |   108.26
   17 N                |  19 C                |  39 C                |   114.88
   20 H                |  19 C                |  21 C                |   108.16
   20 H                |  19 C                |  39 C                |   106.06
   21 C                |  19 C                |  39 C                |   110.81
   19 C                |  21 C                |  22 H                |   108.56
   19 C                |  21 C                |  23 H                |   108.48
   19 C                |  21 C                |  24 C                |   115.86
   22 H                |  21 C                |  23 H                |   106.97
   22 H                |  21 C                |  24 C                |   108.10
   23 H                |  21 C                |  24 C                |   108.53
   21 C                |  24 C                |  25 C                |   125.19
   21 C                |  24 C                |  38 C                |   129.15
   25 C                |  24 C                |  38 C                |   105.65
   24 C                |  25 C                |  26 H                |   124.94
   24 C                |  25 C                |  27 N                |   109.78
   26 H                |  25 C                |  27 N                |   125.27
   25 C                |  27 N                |  28 H                |   123.30
   25 C                |  27 N                |  29 C                |   111.64
   28 H                |  27 N                |  29 C                |   125.06
   27 N                |  29 C                |  30 C                |   132.87
   27 N                |  29 C                |  38 C                |   104.50
   30 C                |  29 C                |  38 C                |   122.64
   29 C                |  30 C                |  31 H                |   120.38
   29 C                |  30 C                |  32 C                |   119.07
   31 H                |  30 C                |  32 C                |   120.55
   30 C                |  32 C                |  33 H                |   120.22
   30 C                |  32 C                |  34 C                |   119.84
   33 H                |  32 C                |  34 C                |   119.94
   32 C                |  34 C                |  35 H                |   119.80
   32 C                |  34 C                |  36 C                |   120.52
   35 H                |  34 C                |  36 C                |   119.68
   34 C                |  36 C                |  37 H                |   119.52
   34 C                |  36 C                |  38 C                |   121.17
   37 H                |  36 C                |  38 C                |   119.31
   24 C                |  38 C                |  29 C                |   108.43
   24 C                |  38 C                |  36 C                |   134.81
   29 C                |  38 C                |  36 C                |   116.76
   19 C                |  39 C                |  40 O                |   120.21
   19 C                |  39 C                |  41 N                |   119.63
   40 O                |  39 C                |  41 N                |   120.15
   39 C                |  41 N                |  42 H                |   118.18
   39 C                |  41 N                |  43 H                |   119.76
   42 H                |  41 N                |  43 H                |   122.06
 ------------------------------------------------------------------------------
                            number of included internuclear angles:         75
 ==============================================================================



  library name resolved from: environment
  library file name is: </opt/rit/el9/20230413/app/linux-rhel9-x86_64_v3/gcc-11.2.1/nwchem-7.2.0-oxtctbuhfuzyfaoziquq6bki22grib3g/share/nwchem/libraries/>
  


 Summary of "ao basis" -> "" (cartesian)
 ------------------------------------------------------------------------------
       Tag                 Description            Shells   Functions and Types
 ---------------- ------------------------------  ------  ---------------------
 *                        aug-cc-pvdz                 on all atoms 


                      Basis "ao basis" -> "ao basis" (cartesian)
                      -----
  H (Hydrogen)
  ------------
            Exponent  Coefficients 
       -------------- ---------------------------------------------------------
  1 S  1.30100000E+01  0.019685
  1 S  1.96200000E+00  0.137977
  1 S  4.44600000E-01  0.478148

  2 S  1.22000000E-01  1.000000

  3 S  2.97400000E-02  1.000000

  4 P  7.27000000E-01  1.000000

  5 P  1.41000000E-01  1.000000

  C (Carbon)
  ----------
            Exponent  Coefficients 
       -------------- ---------------------------------------------------------
  1 S  6.66500000E+03  0.000692
  1 S  1.00000000E+03  0.005329
  1 S  2.28000000E+02  0.027077
  1 S  6.47100000E+01  0.101718
  1 S  2.10600000E+01  0.274740
  1 S  7.49500000E+00  0.448564
  1 S  2.79700000E+00  0.285074
  1 S  5.21500000E-01  0.015204

  2 S  6.66500000E+03 -0.000146
  2 S  1.00000000E+03 -0.001154
  2 S  2.28000000E+02 -0.005725
  2 S  6.47100000E+01 -0.023312
  2 S  2.10600000E+01 -0.063955
  2 S  7.49500000E+00 -0.149981
  2 S  2.79700000E+00 -0.127262
  2 S  5.21500000E-01  0.544529

  3 S  1.59600000E-01  1.000000

  4 S  4.69000000E-02  1.000000

  5 P  9.43900000E+00  0.038109
  5 P  2.00200000E+00  0.209480
  5 P  5.45600000E-01  0.508557

  6 P  1.51700000E-01  1.000000

  7 P  4.04100000E-02  1.000000

  8 D  5.50000000E-01  1.000000

  9 D  1.51000000E-01  1.000000

  O (Oxygen)
  ----------
            Exponent  Coefficients 
       -------------- ---------------------------------------------------------
  1 S  1.17200000E+04  0.000710
  1 S  1.75900000E+03  0.005470
  1 S  4.00800000E+02  0.027837
  1 S  1.13700000E+02  0.104800
  1 S  3.70300000E+01  0.283062
  1 S  1.32700000E+01  0.448719
  1 S  5.02500000E+00  0.270952
  1 S  1.01300000E+00  0.015458

  2 S  1.17200000E+04 -0.000160
  2 S  1.75900000E+03 -0.001263
  2 S  4.00800000E+02 -0.006267
  2 S  1.13700000E+02 -0.025716
  2 S  3.70300000E+01 -0.070924
  2 S  1.32700000E+01 -0.165411
  2 S  5.02500000E+00 -0.116955
  2 S  1.01300000E+00  0.557368

  3 S  3.02300000E-01  1.000000

  4 S  7.89600000E-02  1.000000

  5 P  1.77000000E+01  0.043018
  5 P  3.85400000E+00  0.228913
  5 P  1.04600000E+00  0.508728

  6 P  2.75300000E-01  1.000000

  7 P  6.85600000E-02  1.000000

  8 D  1.18500000E+00  1.000000

  9 D  3.32000000E-01  1.000000

  N (Nitrogen)
  ------------
            Exponent  Coefficients 
       -------------- ---------------------------------------------------------
  1 S  9.04600000E+03  0.000700
  1 S  1.35700000E+03  0.005389
  1 S  3.09300000E+02  0.027406
  1 S  8.77300000E+01  0.103207
  1 S  2.85600000E+01  0.278723
  1 S  1.02100000E+01  0.448540
  1 S  3.83800000E+00  0.278238
  1 S  7.46600000E-01  0.015440

  2 S  9.04600000E+03 -0.000153
  2 S  1.35700000E+03 -0.001208
  2 S  3.09300000E+02 -0.005992
  2 S  8.77300000E+01 -0.024544
  2 S  2.85600000E+01 -0.067459
  2 S  1.02100000E+01 -0.158078
  2 S  3.83800000E+00 -0.121831
  2 S  7.46600000E-01  0.549003

  3 S  2.24800000E-01  1.000000

  4 S  6.12400000E-02  1.000000

  5 P  1.35500000E+01  0.039919
  5 P  2.91700000E+00  0.217169
  5 P  7.97300000E-01  0.510319

  6 P  2.18500000E-01  1.000000

  7 P  5.61100000E-02  1.000000

  8 D  8.17000000E-01  1.000000

  9 D  2.30000000E-01  1.000000



 Summary of "ao basis" -> "ao basis" (cartesian)
 ------------------------------------------------------------------------------
       Tag                 Description            Shells   Functions and Types
 ---------------- ------------------------------  ------  ---------------------
 H                        aug-cc-pvdz                5        9   3s2p
 C                        aug-cc-pvdz                9       25   4s3p2d
 O                        aug-cc-pvdz                9       25   4s3p2d
 N                        aug-cc-pvdz                9       25   4s3p2d


                                 NWChem SCF Module
                                 -----------------



  ao basis        = "ao basis"
  functions       =   755
  atoms           =    43
  closed shells   =    84
  open shells     =     0
  charge          =   0.00
  wavefunction    = RHF 
  input vectors   = atomic
  output vectors  = ./ALA_TRP_4.movecs
  use symmetry    = F
  symmetry adapt  = F


 Summary of "ao basis" -> "ao basis" (cartesian)
 ------------------------------------------------------------------------------
       Tag                 Description            Shells   Functions and Types
 ---------------- ------------------------------  ------  ---------------------
 H                        aug-cc-pvdz                5        9   3s2p
 C                        aug-cc-pvdz                9       25   4s3p2d
 O                        aug-cc-pvdz                9       25   4s3p2d
 N                        aug-cc-pvdz                9       25   4s3p2d



 Forming initial guess at       1.0s


 !! The overlap matrix has  17 vectors deemed linearly dependent with
    eigenvalues:
 2.30D-07 9.54D-07 1.16D-06 1.38D-06 1.59D-06 1.66D-06 1.96D-06 2.76D-06
 3.08D-06 3.57D-06 4.42D-06 4.77D-06 6.12D-06 6.81D-06 8.04D-06 8.52D-06
 9.61D-06


      Superposition of Atomic Density Guess
      -------------------------------------

 Sum of atomic energies:       -1054.17033381

      Non-variational initial energy
      ------------------------------

 Total energy =   -1070.129174
 1-e energy   =   -5355.656911
 2-e energy   =    2310.622945
 HOMO         =      -0.236647
 LUMO         =      -0.029901


 Starting SCF solution at    1283.5s



 ----------------------------------------------
         Quadratically convergent ROHF

 Convergence threshold     :          1.000E-04
 Maximum no. of iterations :           30
 Final Fock-matrix accuracy:          1.000E-10
 ----------------------------------------------


              iter       energy          gnorm     gmax       time
             ----- ------------------- --------- --------- --------
                 1    -1059.6735136582  2.57D+00  1.12D-01   2614.8
                 2    -1060.0479233190  9.72D-01  4.95D-02   5523.1
                 3    -1060.1282383491  6.92D-02  5.32D-03   9833.9
                 4    -1060.1289479398  2.30D-03  1.80D-04  16996.5
                 5    -1060.1289488892  6.58D-06  6.47D-07  27992.4


       Final RHF  results 
       ------------------ 

         Total SCF energy =  -1060.128948889181
      One-electron energy =  -5372.437092857112
      Two-electron energy =   2337.403352209602
 Nuclear repulsion energy =   1974.904791758330

        Time for solution =  26714.9s


             Final eigenvalues
             -----------------

              1      
    1  -20.5530
    2  -20.5318
    3  -20.5093
    4  -15.6252
    5  -15.6071
    6  -15.5934
    7  -15.5799
    8  -11.3823
    9  -11.3609
   10  -11.3447
   11  -11.3119
   12  -11.2907
   13  -11.2727
   14  -11.2687
   15  -11.2643
   16  -11.2492
   17  -11.2466
   18  -11.2366
   19  -11.2354
   20  -11.2316
   21  -11.2305
   22  -11.2274
   23  -11.2237
   24   -1.4174
   25   -1.3902
   26   -1.3716
   27   -1.2941
   28   -1.2724
   29   -1.2436
   30   -1.2035
   31   -1.1210
   32   -1.0913
   33   -1.0733
   34   -1.0253
   35   -1.0116
   36   -0.9902
   37   -0.9781
   38   -0.9149
   39   -0.8864
   40   -0.8403
   41   -0.8339
   42   -0.8080
   43   -0.7990
   44   -0.7860
   45   -0.7544
   46   -0.7361
   47   -0.7271
   48   -0.7145
   49   -0.7060
   50   -0.6914
   51   -0.6781
   52   -0.6640
   53   -0.6457
   54   -0.6416
   55   -0.6336
   56   -0.6114
   57   -0.6087
   58   -0.6004
   59   -0.5940
   60   -0.5894
   61   -0.5839
   62   -0.5813
   63   -0.5709
   64   -0.5672
   65   -0.5622
   66   -0.5513
   67   -0.5479
   68   -0.5450
   69   -0.5336
   70   -0.5285
   71   -0.5235
   72   -0.5033
   73   -0.4948
   74   -0.4689
   75   -0.4589
   76   -0.4560
   77   -0.4476
   78   -0.4296
   79   -0.4073
   80   -0.3978
   81   -0.3853
   82   -0.3706
   83   -0.2952
   84   -0.2791
   85    0.0193
   86    0.0316
   87    0.0331
   88    0.0400
   89    0.0427
   90    0.0457
   91    0.0521
   92    0.0547
   93    0.0573
   94    0.0627

                       ROHF Final Molecular Orbital Analysis
                       -------------------------------------

 Vector   24  Occ=2.000000D+00  E=-1.417360D+00
              MO Center=  1.7D+00, -2.7D+00,  2.6D-02, r^2= 1.2D+00
   Bfn.  Coefficient  Atom+Function         Bfn.  Coefficient  Atom+Function  
  ----- ------------  ---------------      ----- ------------  ---------------
    80      0.351069   6 O  s                79      0.345375   6 O  s         
    54      0.241947   5 C  s                12      0.180543   2 C  s         

 Vector   25  Occ=2.000000D+00  E=-1.390230D+00
              MO Center= -1.8D+00, -2.2D+00, -1.2D-01, r^2= 1.8D+00
   Bfn.  Coefficient  Atom+Function         Bfn.  Coefficient  Atom+Function  
  ----- ------------  ---------------      ----- ------------  ---------------
   250      0.355333  16 O  s               249      0.338604  16 O  s         
   224      0.237083  15 C  s         

 Vector   26  Occ=2.000000D+00  E=-1.371645D+00
              MO Center= -2.8D+00,  9.2D-01,  6.8D-01, r^2= 1.4D+00
   Bfn.  Coefficient  Atom+Function         Bfn.  Coefficient  Atom+Function  
  ----- ------------  ---------------      ----- ------------  ---------------
   690      0.375413  40 O  s               689      0.345037  40 O  s         
   664      0.242872  39 C  s         

 Vector   27  Occ=2.000000D+00  E=-1.294123D+00
              MO Center=  2.0D+00,  2.0D+00, -6.8D-02, r^2= 1.3D+00
   Bfn.  Coefficient  Atom+Function         Bfn.  Coefficient  Atom+Function  
  ----- ------------  ---------------      ----- ------------  ---------------
   445      0.494308  27 N  s               444      0.333025  27 N  s         
   478      0.171387  29 C  s               410      0.164492  25 C  s         

 Vector   28  Occ=2.000000D+00  E=-1.272435D+00
              MO Center=  7.8D-01, -3.6D+00, -2.6D-01, r^2= 1.8D+00
   Bfn.  Coefficient  Atom+Function         Bfn.  Coefficient  Atom+Function  
  ----- ------------  ---------------      ----- ------------  ---------------
   105      0.413647   7 N  s               104      0.344021   7 N  s         
    80     -0.216768   6 O  s                79     -0.181151   6 O  s         
   128      0.158423   8 H  s         

 Vector   29  Occ=2.000000D+00  E=-1.243577D+00
              MO Center= -1.0D+00, -1.2D+00,  2.5D-01, r^2= 2.5D+00
   Bfn.  Coefficient  Atom+Function         Bfn.  Coefficient  Atom+Function  
  ----- ------------  ---------------      ----- ------------  ---------------
   275      0.385992  17 N  s               274      0.327683  17 N  s         
   250     -0.202756  16 O  s               309     -0.189156  19 C  s         
   249     -0.166758  16 O  s         

 Vector   30  Occ=2.000000D+00  E=-1.203482D+00
              MO Center= -2.3D+00,  5.8D-01, -4.4D-01, r^2= 1.9D+00
   Bfn.  Coefficient  Atom+Function         Bfn.  Coefficient  Atom+Function  
  ----- ------------  ---------------      ----- ------------  ---------------
   715      0.389643  41 N  s               714      0.363280  41 N  s         
   690     -0.204711  40 O  s               669     -0.193717  39 C  pz        
   309     -0.179374  19 C  s               275     -0.171323  17 N  s         
   689     -0.169118  40 O  s               747      0.167047  43 H  s         
   738      0.156440  42 H  s         

 Vector   31  Occ=2.000000D+00  E=-1.120961D+00
              MO Center=  5.8D-01,  3.8D+00, -4.0D-01, r^2= 3.0D+00
   Bfn.  Coefficient  Atom+Function         Bfn.  Coefficient  Atom+Function  
  ----- ------------  ---------------      ----- ------------  ---------------
   445      0.257124  27 N  s               412     -0.190043  25 C  s         
   537     -0.184492  32 C  s               571     -0.180712  34 C  s         
   605     -0.174935  36 C  s               503     -0.167405  30 C  s         
   639     -0.156669  38 C  s               641      0.154155  38 C  s         

 Vector   32  Occ=2.000000D+00  E=-1.091274D+00
              MO Center=  2.3D-01,  2.6D-01,  6.1D-01, r^2= 7.8D+00
   Bfn.  Coefficient  Atom+Function         Bfn.  Coefficient  Atom+Function  
  ----- ------------  ---------------      ----- ------------  ---------------
   342      0.206383  21 C  s               385      0.199336  24 C  s         

 Vector   33  Occ=2.000000D+00  E=-1.073261D+00
              MO Center=  4.7D-01, -2.6D+00, -3.8D-01, r^2= 9.3D+00
   Bfn.  Coefficient  Atom+Function         Bfn.  Coefficient  Atom+Function  
  ----- ------------  ---------------      ----- ------------  ---------------
   138      0.216778   9 C  s               172      0.179686  11 C  s         
    12     -0.173359   2 C  s                11     -0.153683   2 C  s         

 Vector   34  Occ=2.000000D+00  E=-1.025270D+00
              MO Center=  1.6D-01,  8.7D-01,  4.5D-01, r^2= 9.7D+00
   Bfn.  Coefficient  Atom+Function         Bfn.  Coefficient  Atom+Function  
  ----- ------------  ---------------      ----- ------------  ---------------
   308      0.198507  19 C  s               505     -0.172500  30 C  s         

 Vector   35  Occ=2.000000D+00  E=-1.011575D+00
              MO Center=  1.4D+00, -3.8D+00,  1.3D-01, r^2= 6.8D+00
   Bfn.  Coefficient  Atom+Function         Bfn.  Coefficient  Atom+Function  
  ----- ------------  ---------------      ----- ------------  ---------------
    11      0.296009   2 C  s               172      0.184186  11 C  s         
    55      0.153077   5 C  s         

 Vector   36  Occ=2.000000D+00  E=-9.902497D-01
              MO Center=  7.7D-01,  3.5D+00, -3.4D-01, r^2= 4.1D+00
   Bfn.  Coefficient  Atom+Function         Bfn.  Coefficient  Atom+Function  
  ----- ------------  ---------------      ----- ------------  ---------------
   573      0.316733  34 C  s               571     -0.231461  34 C  s         
   478      0.220183  29 C  s               505     -0.207535  30 C  s         
   596     -0.160483  35 H  s               445     -0.159586  27 N  s         
   641     -0.153133  38 C  s         

 Vector   37  Occ=2.000000D+00  E=-9.780666D-01
              MO Center=  4.5D-01,  2.6D+00, -3.8D-02, r^2= 7.4D+00
   Bfn.  Coefficient  Atom+Function         Bfn.  Coefficient  Atom+Function  
  ----- ------------  ---------------      ----- ------------  ---------------
   607     -0.222397  36 C  s               539      0.205094  32 C  s         
   605      0.193915  36 C  s               412      0.166841  25 C  s         
   503     -0.164072  30 C  s               537     -0.162689  32 C  s         
   641     -0.154648  38 C  s               410     -0.153202  25 C  s         

 Vector   38  Occ=2.000000D+00  E=-9.148848D-01
              MO Center= -2.8D-01, -1.5D+00, -1.3D-01, r^2= 1.1D+01
   Bfn.  Coefficient  Atom+Function         Bfn.  Coefficient  Atom+Function  
  ----- ------------  ---------------      ----- ------------  ---------------
   139      0.267964   9 C  s               225     -0.197120  15 C  s         
   172     -0.194790  11 C  s               342      0.191188  21 C  s         
   145      0.180704   9 C  py              146      0.172357   9 C  pz        

 Vector   39  Occ=2.000000D+00  E=-8.863900D-01
              MO Center= -6.6D-01, -1.1D+00, -1.3D-03, r^2= 1.0D+01
   Bfn.  Coefficient  Atom+Function         Bfn.  Coefficient  Atom+Function  
  ----- ------------  ---------------      ----- ------------  ---------------
   309      0.192736  19 C  s               139      0.175676   9 C  s         
   172     -0.158829  11 C  s               316     -0.156012  19 C  pz        

 Vector   40  Occ=2.000000D+00  E=-8.402697D-01
              MO Center=  9.4D-01,  2.5D+00, -2.3D-01, r^2= 9.8D+00
   Bfn.  Coefficient  Atom+Function         Bfn.  Coefficient  Atom+Function  
  ----- ------------  ---------------      ----- ------------  ---------------
   505      0.201265  30 C  s               573     -0.201654  34 C  s         
   539     -0.193754  32 C  s               435     -0.177770  26 H  s         
   630     -0.165622  37 H  s               503     -0.161430  30 C  s         
   605     -0.159933  36 C  s               482     -0.154827  29 C  py        
   528     -0.155335  31 H  s         

 Vector   41  Occ=2.000000D+00  E=-8.339264D-01
              MO Center=  6.3D-01, -2.5D+00, -1.6D-01, r^2= 9.6D+00
   Bfn.  Coefficient  Atom+Function         Bfn.  Coefficient  Atom+Function  
  ----- ------------  ---------------      ----- ------------  ---------------
   107      0.234277   7 N  px              128     -0.213319   8 H  s         
   139      0.201847   9 C  s                54      0.196615   5 C  s         
   108      0.192079   7 N  py              105     -0.174268   7 N  s         
   309      0.166804  19 C  s                80     -0.153122   6 O  s         

 Vector   42  Occ=2.000000D+00  E=-8.080022D-01
              MO Center= -1.5D-01, -2.3D-01, -7.8D-02, r^2= 1.1D+01
   Bfn.  Coefficient  Atom+Function         Bfn.  Coefficient  Atom+Function  
  ----- ------------  ---------------      ----- ------------  ---------------
   309      0.229990  19 C  s               539     -0.177568  32 C  s         
   573      0.176436  34 C  s               128      0.162799   8 H  s         
   108     -0.159630   7 N  py               55     -0.150660   5 C  s         

 Vector   43  Occ=2.000000D+00  E=-7.989891D-01
              MO Center=  1.9D-01,  2.2D+00, -2.6D-01, r^2= 1.1D+01
   Bfn.  Coefficient  Atom+Function         Bfn.  Coefficient  Atom+Function  
  ----- ------------  ---------------      ----- ------------  ---------------
   539      0.352166  32 C  s               573     -0.305198  34 C  s         
   641      0.207550  38 C  s               309      0.190683  19 C  s         
   562     -0.161274  33 H  s               596      0.151425  35 H  s         

 Vector   44  Occ=2.000000D+00  E=-7.860177D-01
              MO Center= -1.2D+00, -1.8D-01,  4.5D-02, r^2= 5.7D+00
   Bfn.  Coefficient  Atom+Function         Bfn.  Coefficient  Atom+Function  
  ----- ------------  ---------------      ----- ------------  ---------------
   719     -0.261005  41 N  pz              314      0.242967  19 C  px        
   672      0.212018  39 C  pz              225      0.204222  15 C  s         
   277     -0.197742  17 N  px              298     -0.198173  18 H  s         
   299     -0.192201  18 H  s               275     -0.183789  17 N  s         
   315     -0.161248  19 C  py              664     -0.153373  39 C  s         

 Vector   45  Occ=2.000000D+00  E=-7.543511D-01
              MO Center=  2.6D-01,  1.2D+00,  1.2D-01, r^2= 9.0D+00
   Bfn.  Coefficient  Atom+Function         Bfn.  Coefficient  Atom+Function  
  ----- ------------  ---------------      ----- ------------  ---------------
   505      0.184897  30 C  s               539     -0.176594  32 C  s         
   497     -0.170631  29 C  dxy             385     -0.166340  24 C  s         
   649     -0.166062  38 C  py        

 Vector   46  Occ=2.000000D+00  E=-7.360686D-01
              MO Center= -1.1D+00, -1.2D+00, -3.1D-01, r^2= 6.7D+00
   Bfn.  Coefficient  Atom+Function         Bfn.  Coefficient  Atom+Function  
  ----- ------------  ---------------      ----- ------------  ---------------
   225      0.268985  15 C  s               747     -0.223418  43 H  s         
   314      0.216651  19 C  px              145     -0.185387   9 C  py        
   665      0.185144  39 C  s               717     -0.182341  41 N  px        
   144      0.176299   9 C  px              277     -0.164325  17 N  px        
   141      0.150319   9 C  px        

 Vector   47  Occ=2.000000D+00  E=-7.271302D-01
              MO Center= -3.5D-01,  1.1D-02, -2.9D-01, r^2= 1.3D+01
   Bfn.  Coefficient  Atom+Function         Bfn.  Coefficient  Atom+Function  
  ----- ------------  ---------------      ----- ------------  ---------------
   747     -0.166064  43 H  s               145      0.160660   9 C  py        
   717     -0.159498  41 N  px              738      0.155933  42 H  s         
   139      0.153421   9 C  s               505     -0.153276  30 C  s         

 Vector   48  Occ=2.000000D+00  E=-7.145257D-01
              MO Center=  1.0D+00,  1.2D+00, -4.7D-02, r^2= 1.2D+01
   Bfn.  Coefficient  Atom+Function         Bfn.  Coefficient  Atom+Function  
  ----- ------------  ---------------      ----- ------------  ---------------
   447      0.238619  27 N  px              468      0.221010  28 H  s         
   505      0.195178  30 C  s               572      0.178788  34 C  s         
   649     -0.172973  38 C  py              630     -0.162513  37 H  s         

 Vector   49  Occ=2.000000D+00  E=-7.060418D-01
              MO Center=  9.1D-01, -1.8D+00,  1.6D-01, r^2= 1.0D+01
   Bfn.  Coefficient  Atom+Function         Bfn.  Coefficient  Atom+Function  
  ----- ------------  ---------------      ----- ------------  ---------------
    83     -0.233428   6 O  py               57      0.212556   5 C  px        
    80     -0.177679   6 O  s         

 Vector   50  Occ=2.000000D+00  E=-6.914007D-01
              MO Center=  4.2D-01, -3.1D+00, -6.5D-01, r^2= 4.8D+00
   Bfn.  Coefficient  Atom+Function         Bfn.  Coefficient  Atom+Function  
  ----- ------------  ---------------      ----- ------------  ---------------
   143      0.247419   9 C  pz              162     -0.219480  10 H  s         
   146      0.218227   9 C  pz              108      0.182587   7 N  py        
    58      0.178090   5 C  py              107     -0.172129   7 N  px        
    83     -0.169609   6 O  py               80     -0.152750   6 O  s         

 Vector   51  Occ=2.000000D+00  E=-6.780645D-01
              MO Center= -8.8D-01, -8.7D-02,  2.3D-01, r^2= 1.0D+01
   Bfn.  Coefficient  Atom+Function         Bfn.  Coefficient  Atom+Function  
  ----- ------------  ---------------      ----- ------------  ---------------
   314      0.185980  19 C  px              252      0.175339  16 O  px        
   539     -0.170382  32 C  s               669     -0.167544  39 C  pz        
   250     -0.165049  16 O  s               315     -0.159660  19 C  py        

 Vector   52  Occ=2.000000D+00  E=-6.639888D-01
              MO Center=  6.6D-01,  1.8D+00,  2.5D-02, r^2= 1.1D+01
   Bfn.  Coefficient  Atom+Function         Bfn.  Coefficient  Atom+Function  
  ----- ------------  ---------------      ----- ------------  ---------------
   572      0.259795  34 C  s               539      0.241376  32 C  s         
   646     -0.216633  38 C  py              448     -0.213403  27 N  py        
   414      0.178810  25 C  py              561     -0.169812  33 H  s         
   434     -0.162706  26 H  s               562     -0.160631  33 H  s         

 Vector   53  Occ=2.000000D+00  E=-6.456616D-01
              MO Center= -3.4D-04, -6.2D-01,  2.6D-01, r^2= 1.5D+01
   Bfn.  Coefficient  Atom+Function         Bfn.  Coefficient  Atom+Function  
  ----- ------------  ---------------      ----- ------------  ---------------
   139      0.253443   9 C  s               573     -0.192003  34 C  s         
   226      0.175941  15 C  s               225     -0.162426  15 C  s         
   252     -0.159716  16 O  px        

 Vector   54  Occ=2.000000D+00  E=-6.415717D-01
              MO Center=  4.9D-01,  2.3D+00, -1.6D-01, r^2= 1.4D+01
   Bfn.  Coefficient  Atom+Function         Bfn.  Coefficient  Atom+Function  
  ----- ------------  ---------------      ----- ------------  ---------------
   573      0.296481  34 C  s               595     -0.194222  35 H  s         
   575     -0.193125  34 C  py              641     -0.191696  38 C  s         
   596     -0.185812  35 H  s               541     -0.175415  32 C  py        
   434     -0.162555  26 H  s               506     -0.156791  30 C  px        
   413     -0.153512  25 C  px              572      0.150717  34 C  s         

 Vector   55  Occ=2.000000D+00  E=-6.336302D-01
              MO Center=  5.7D-01, -2.1D+00,  6.0D-01, r^2= 1.1D+01
   Bfn.  Coefficient  Atom+Function         Bfn.  Coefficient  Atom+Function  
  ----- ------------  ---------------      ----- ------------  ---------------
    16      0.201782   2 C  pz                1     -0.174758   1 H  s         
    44      0.175403   4 H  s         

 Vector   56  Occ=2.000000D+00  E=-6.114266D-01
              MO Center= -9.2D-01, -5.7D-01,  2.0D-01, r^2= 1.2D+01
   Bfn.  Coefficient  Atom+Function         Bfn.  Coefficient  Atom+Function  
  ----- ------------  ---------------      ----- ------------  ---------------
   252      0.245563  16 O  px              227     -0.192621  15 C  px        
   693     -0.173290  40 O  py              690     -0.159341  40 O  s         

 Vector   57  Occ=2.000000D+00  E=-6.087279D-01
              MO Center=  8.1D-01, -2.7D+00, -8.4D-02, r^2= 8.5D+00
   Bfn.  Coefficient  Atom+Function         Bfn.  Coefficient  Atom+Function  
  ----- ------------  ---------------      ----- ------------  ---------------
    58      0.269000   5 C  py               83     -0.264008   6 O  py        
   139      0.189844   9 C  s                82     -0.169403   6 O  px        
   128      0.160727   8 H  s               163     -0.154189  10 H  s         

 Vector   58  Occ=2.000000D+00  E=-6.004163D-01
              MO Center= -8.0D-01, -4.2D-01,  1.7D-01, r^2= 1.2D+01
   Bfn.  Coefficient  Atom+Function         Bfn.  Coefficient  Atom+Function  
  ----- ------------  ---------------      ----- ------------  ---------------
   693     -0.182250  40 O  py              666      0.177084  39 C  s         
   333     -0.175591  20 H  s               313     -0.171412  19 C  pz        
   139      0.160215   9 C  s         

 Vector   59  Occ=2.000000D+00  E=-5.940410D-01
              MO Center=  1.3D+00, -1.5D+00,  2.6D-01, r^2= 1.7D+01
   Bfn.  Coefficient  Atom+Function         Bfn.  Coefficient  Atom+Function  
  ----- ------------  ---------------      ----- ------------  ---------------
    35      0.254573   3 H  s                36      0.243344   3 H  s         
    15      0.202259   2 C  py               14      0.199666   2 C  px        
   505     -0.153384  30 C  s         

 Vector   60  Occ=2.000000D+00  E=-5.893950D-01
              MO Center=  1.1D+00, -3.1D-02,  3.2D-01, r^2= 1.6D+01
   Bfn.  Coefficient  Atom+Function         Bfn.  Coefficient  Atom+Function  
  ----- ------------  ---------------      ----- ------------  ---------------
    35      0.204767   3 H  s                36      0.192900   3 H  s         
    15      0.166164   2 C  py               14      0.156338   2 C  px        
   226      0.152293  15 C  s               449      0.150636  27 N  pz        

 Vector   61  Occ=2.000000D+00  E=-5.839209D-01
              MO Center= -6.6D-01,  1.0D+00,  2.8D-01, r^2= 1.0D+01
   Bfn.  Coefficient  Atom+Function         Bfn.  Coefficient  Atom+Function  
  ----- ------------  ---------------      ----- ------------  ---------------
   692      0.194844  40 O  px              694     -0.170375  40 O  pz        
   668      0.167101  39 C  py              690     -0.157989  40 O  s         

 Vector   62  Occ=2.000000D+00  E=-5.812549D-01
              MO Center=  5.1D-01,  3.5D+00, -3.5D-01, r^2= 5.6D+00
   Bfn.  Coefficient  Atom+Function         Bfn.  Coefficient  Atom+Function  
  ----- ------------  ---------------      ----- ------------  ---------------
   645      0.247682  38 C  px              608     -0.220610  36 C  px        
   642      0.220922  38 C  px              666     -0.196134  39 C  s         
   574     -0.194085  34 C  px              506     -0.192758  30 C  px        
   540      0.193677  32 C  px              527     -0.181341  31 H  s         
   658     -0.175177  38 C  dxy             481     -0.165875  29 C  px        

 Vector   63  Occ=2.000000D+00  E=-5.708684D-01
              MO Center= -3.9D-01, -1.4D-01, -1.5D-01, r^2= 1.3D+01
   Bfn.  Coefficient  Atom+Function         Bfn.  Coefficient  Atom+Function  
  ----- ------------  ---------------      ----- ------------  ---------------
   276      0.311606  17 N  s               666     -0.274922  39 C  s         
   395      0.156635  24 C  py              668      0.154350  39 C  py        

 Vector   64  Occ=2.000000D+00  E=-5.671942D-01
              MO Center=  4.5D-01,  3.4D-01,  1.2D-01, r^2= 1.2D+01
   Bfn.  Coefficient  Atom+Function         Bfn.  Coefficient  Atom+Function  
  ----- ------------  ---------------      ----- ------------  ---------------
   666      0.212505  39 C  s               395      0.204130  24 C  py        
   346     -0.182417  21 C  py              391      0.173081  24 C  px        
   414      0.172240  25 C  py              449      0.168110  27 N  pz        
   176     -0.165214  11 C  py              435     -0.159283  26 H  s         
   434     -0.150292  26 H  s         

 Vector   65  Occ=2.000000D+00  E=-5.622449D-01
              MO Center=  2.1D-02, -2.0D+00, -2.0D-01, r^2= 1.5D+01
   Bfn.  Coefficient  Atom+Function         Bfn.  Coefficient  Atom+Function  
  ----- ------------  ---------------      ----- ------------  ---------------
   177      0.228258  11 C  pz               16      0.162095   2 C  pz        
   196     -0.156311  12 H  s                 1     -0.152891   1 H  s         

 Vector   66  Occ=2.000000D+00  E=-5.513079D-01
              MO Center= -4.3D-01, -1.9D+00, -6.2D-01, r^2= 1.3D+01
   Bfn.  Coefficient  Atom+Function         Bfn.  Coefficient  Atom+Function  
  ----- ------------  ---------------      ----- ------------  ---------------
   215      0.256048  14 H  s               176      0.223238  11 C  py        
   214      0.214527  14 H  s                12      0.193717   2 C  s         
   196     -0.192207  12 H  s                55     -0.180131   5 C  s         
   388      0.160998  24 C  px              175     -0.155073  11 C  px        

 Vector   67  Occ=2.000000D+00  E=-5.478896D-01
              MO Center= -3.3D-01, -7.8D-01,  4.3D-02, r^2= 1.3D+01
   Bfn.  Coefficient  Atom+Function         Bfn.  Coefficient  Atom+Function  
  ----- ------------  ---------------      ----- ------------  ---------------
   539     -0.185115  32 C  s               254      0.183237  16 O  pz        
   309     -0.174462  19 C  s               229      0.161865  15 C  pz        

 Vector   68  Occ=2.000000D+00  E=-5.450021D-01
              MO Center=  6.4D-01, -3.0D+00, -2.0D-01, r^2= 8.9D+00
   Bfn.  Coefficient  Atom+Function         Bfn.  Coefficient  Atom+Function  
  ----- ------------  ---------------      ----- ------------  ---------------
    82     -0.187611   6 O  px              214     -0.184805  14 H  s         
   109      0.182107   7 N  pz               14      0.180952   2 C  px        
    44     -0.179883   4 H  s               175      0.172676  11 C  px        
   177      0.156478  11 C  pz               57     -0.155484   5 C  px        
   215     -0.152502  14 H  s         

 Vector   69  Occ=2.000000D+00  E=-5.336243D-01
              MO Center= -5.4D-01, -1.1D+00,  1.4D-01, r^2= 1.1D+01
   Bfn.  Coefficient  Atom+Function         Bfn.  Coefficient  Atom+Function  
  ----- ------------  ---------------      ----- ------------  ---------------
   347      0.235062  21 C  pz              253     -0.178438  16 O  py        
   196      0.177493  12 H  s               197      0.175157  12 H  s         
   275      0.168624  17 N  s               366      0.164908  22 H  s         

 Vector   70  Occ=2.000000D+00  E=-5.285081D-01
              MO Center= -1.7D-01,  2.6D+00,  3.4D-01, r^2= 1.0D+01
   Bfn.  Coefficient  Atom+Function         Bfn.  Coefficient  Atom+Function  
  ----- ------------  ---------------      ----- ------------  ---------------
   539     -0.277409  32 C  s               562      0.268847  33 H  s         
   367      0.265568  22 H  s               573      0.262374  34 C  s         
   376     -0.249185  23 H  s               561      0.216120  33 H  s         
   375     -0.207408  23 H  s               541      0.205547  32 C  py        
   345     -0.183719  21 C  px              596     -0.172776  35 H  s         

 Vector   71  Occ=2.000000D+00  E=-5.234747D-01
              MO Center= -7.3D-01, -2.7D+00, -8.1D-01, r^2= 7.3D+00
   Bfn.  Coefficient  Atom+Function         Bfn.  Coefficient  Atom+Function  
  ----- ------------  ---------------      ----- ------------  ---------------
   173      0.286426  11 C  s               162     -0.245384  10 H  s         
   142     -0.237407   9 C  py              179      0.228312  11 C  py        
   205     -0.226775  13 H  s               175      0.203469  11 C  px        
   176      0.199760  11 C  py              141     -0.192918   9 C  px        
   206     -0.190304  13 H  s               180      0.172172  11 C  pz        

 Vector   72  Occ=2.000000D+00  E=-5.032684D-01
              MO Center= -1.2D+00,  3.8D-01,  6.4D-01, r^2= 7.2D+00
   Bfn.  Coefficient  Atom+Function         Bfn.  Coefficient  Atom+Function  
  ----- ------------  ---------------      ----- ------------  ---------------
   666      0.314241  39 C  s               332     -0.231316  20 H  s         
   348     -0.203832  21 C  px              345     -0.183295  21 C  px        
   311      0.181454  19 C  px              349     -0.178976  21 C  py        
   254      0.170578  16 O  pz              312      0.165015  19 C  py        

 Vector   73  Occ=2.000000D+00  E=-4.948415D-01
              MO Center=  2.0D-02,  3.0D+00,  2.8D-01, r^2= 6.8D+00
   Bfn.  Coefficient  Atom+Function         Bfn.  Coefficient  Atom+Function  
  ----- ------------  ---------------      ----- ------------  ---------------
   596      0.322657  35 H  s               595      0.228111  35 H  s         
   367      0.212365  22 H  s               573     -0.213064  34 C  s         
   376     -0.203661  23 H  s               643      0.202359  38 C  py        
   666      0.186440  39 C  s               609     -0.183553  36 C  py        
   575      0.180620  34 C  py              413     -0.170630  25 C  px        

 Vector   74  Occ=2.000000D+00  E=-4.688746D-01
              MO Center=  4.0D-01,  2.9D+00,  5.1D-02, r^2= 6.6D+00
   Bfn.  Coefficient  Atom+Function         Bfn.  Coefficient  Atom+Function  
  ----- ------------  ---------------      ----- ------------  ---------------
   630      0.346056  37 H  s               528      0.258432  31 H  s         
   505     -0.208867  30 C  s               645      0.206382  38 C  px        
   539      0.203783  32 C  s               481     -0.198946  29 C  px        
   376     -0.195983  23 H  s               629      0.196042  37 H  s         
   642      0.184913  38 C  px              344      0.183688  21 C  s         

 Vector   75  Occ=2.000000D+00  E=-4.588572D-01
              MO Center=  4.8D-01, -2.6D+00, -5.4D-02, r^2= 6.1D+00
   Bfn.  Coefficient  Atom+Function         Bfn.  Coefficient  Atom+Function  
  ----- ------------  ---------------      ----- ------------  ---------------
    84      0.382840   6 O  pz               87      0.300197   6 O  pz        
   253     -0.270967  16 O  py              256     -0.214072  16 O  py        
   109     -0.187676   7 N  pz              112     -0.180287   7 N  pz        
   107      0.173444   7 N  px              254     -0.171278  16 O  pz        
   275      0.154669  17 N  s         

 Vector   76  Occ=2.000000D+00  E=-4.560305D-01
              MO Center=  6.4D-01,  3.7D+00, -4.1D-01, r^2= 4.6D+00
   Bfn.  Coefficient  Atom+Function         Bfn.  Coefficient  Atom+Function  
  ----- ------------  ---------------      ----- ------------  ---------------
   395      0.293260  24 C  py              412      0.220105  25 C  s         
   648     -0.206183  38 C  px              576      0.201345  34 C  pz        
   449     -0.177600  27 N  pz              542      0.177523  32 C  pz        
   641     -0.171432  38 C  s               508      0.160256  30 C  pz        

 Vector   77  Occ=2.000000D+00  E=-4.476356D-01
              MO Center=  1.1D+00, -2.7D+00,  5.3D-02, r^2= 4.7D+00
   Bfn.  Coefficient  Atom+Function         Bfn.  Coefficient  Atom+Function  
  ----- ------------  ---------------      ----- ------------  ---------------
    82      0.434458   6 O  px               85      0.356835   6 O  px        
   225     -0.220563  15 C  s               109      0.200543   7 N  pz        
   253      0.196517  16 O  py              140     -0.189284   9 C  s         
    13      0.185873   2 C  s               226     -0.185829  15 C  s         
   144     -0.173852   9 C  px              105      0.158488   7 N  s         

 Vector   78  Occ=2.000000D+00  E=-4.295982D-01
              MO Center= -2.1D+00, -1.9D-01,  5.5D-01, r^2= 5.0D+00
   Bfn.  Coefficient  Atom+Function         Bfn.  Coefficient  Atom+Function  
  ----- ------------  ---------------      ----- ------------  ---------------
   694      0.359789  40 O  pz              697      0.281758  40 O  pz        
   279      0.245938  17 N  pz              254     -0.230224  16 O  pz        
   333      0.229500  20 H  s               282      0.205783  17 N  pz        
   692      0.186166  40 O  px              257     -0.177175  16 O  pz        
   695      0.152458  40 O  px        

 Vector   79  Occ=2.000000D+00  E=-4.072714D-01
              MO Center= -6.8D-01, -2.5D+00, -2.3D-01, r^2= 6.1D+00
   Bfn.  Coefficient  Atom+Function         Bfn.  Coefficient  Atom+Function  
  ----- ------------  ---------------      ----- ------------  ---------------
   253      0.299016  16 O  py              109     -0.247494   7 N  pz        
   256      0.240014  16 O  py              112     -0.229638   7 N  pz        
   254      0.174889  16 O  pz              107      0.173067   7 N  px        
    84      0.166364   6 O  pz        

 Vector   80  Occ=2.000000D+00  E=-3.978402D-01
              MO Center= -2.2D+00,  6.4D-01,  6.0D-02, r^2= 5.3D+00
   Bfn.  Coefficient  Atom+Function         Bfn.  Coefficient  Atom+Function  
  ----- ------------  ---------------      ----- ------------  ---------------
   693      0.325369  40 O  py              718     -0.291595  41 N  py        
   696      0.264167  40 O  py              721     -0.264185  41 N  py        
   717     -0.244763  41 N  px              720     -0.201503  41 N  px        
   333     -0.191076  20 H  s               692      0.157802  40 O  px        

 Vector   81  Occ=2.000000D+00  E=-3.853004D-01
              MO Center= -1.8D+00, -2.5D-01,  4.1D-01, r^2= 5.1D+00
   Bfn.  Coefficient  Atom+Function         Bfn.  Coefficient  Atom+Function  
  ----- ------------  ---------------      ----- ------------  ---------------
   279      0.247959  17 N  pz              692     -0.240289  40 O  px        
   694     -0.235934  40 O  pz              282      0.234035  17 N  pz        
   254     -0.205323  16 O  pz              278     -0.202797  17 N  py        
   697     -0.192196  40 O  pz              281     -0.188348  17 N  py        
   695     -0.186622  40 O  px              333     -0.165140  20 H  s         

 Vector   82  Occ=2.000000D+00  E=-3.706108D-01
              MO Center=  5.7D-01,  2.3D+00,  1.7D-01, r^2= 6.0D+00
   Bfn.  Coefficient  Atom+Function         Bfn.  Coefficient  Atom+Function  
  ----- ------------  ---------------      ----- ------------  ---------------
   390      0.212150  24 C  pz              393      0.173464  24 C  pz        
   644      0.169258  38 C  pz              508     -0.161912  30 C  pz        
   650      0.155740  38 C  pz        

 Vector   83  Occ=2.000000D+00  E=-2.952308D-01
              MO Center=  7.4D-01,  3.5D+00, -3.0D-01, r^2= 4.2D+00
   Bfn.  Coefficient  Atom+Function         Bfn.  Coefficient  Atom+Function  
  ----- ------------  ---------------      ----- ------------  ---------------
   576     -0.226209  34 C  pz              483      0.219685  29 C  pz        
   644      0.192071  38 C  pz              579     -0.187084  34 C  pz        
   486      0.177435  29 C  pz              647      0.165079  38 C  pz        

 Vector   84  Occ=2.000000D+00  E=-2.791038D-01
              MO Center=  8.5D-01,  2.8D+00,  2.0D-02, r^2= 5.5D+00
   Bfn.  Coefficient  Atom+Function         Bfn.  Coefficient  Atom+Function  
  ----- ------------  ---------------      ----- ------------  ---------------
   390      0.212508  24 C  pz              610     -0.189834  36 C  pz        
   508      0.183130  30 C  pz              393      0.178263  24 C  pz        
   309      0.167189  19 C  s               415      0.166929  25 C  pz        
   449     -0.165708  27 N  pz              452     -0.155847  27 N  pz        
   511      0.155147  30 C  pz              666     -0.150843  39 C  s         

 Vector   85  Occ=0.000000D+00  E= 1.929388D-02
              MO Center=  2.1D+00, -5.6D+00,  3.2D-02, r^2= 2.1D+01
   Bfn.  Coefficient  Atom+Function         Bfn.  Coefficient  Atom+Function  
  ----- ------------  ---------------      ----- ------------  ---------------
   300      4.692579  18 H  s                63      2.127293   5 C  px        
   226      2.047081  15 C  s                 3     -1.842074   1 H  s         
    12      1.826068   2 C  s               234     -1.809691  15 C  py        
   140      1.773835   9 C  s                64     -1.699323   5 C  py        
   235     -1.685590  15 C  pz              148     -1.659428   9 C  py        

 Vector   86  Occ=0.000000D+00  E= 3.158594D-02
              MO Center=  2.6D+00,  5.6D-01, -1.8D+00, r^2= 3.5D+01
   Bfn.  Coefficient  Atom+Function         Bfn.  Coefficient  Atom+Function  
  ----- ------------  ---------------      ----- ------------  ---------------
   649      4.397810  38 C  py              395      3.378441  24 C  py        
   344      3.226243  21 C  s               505     -3.049003  30 C  s         
   650     -3.044200  38 C  pz              412      2.873034  25 C  s         
   164     -2.755995  10 H  s               529     -2.480031  31 H  s         
   446     -2.262937  27 N  s               300      2.078197  18 H  s         

 Vector   87  Occ=0.000000D+00  E= 3.308440D-02
              MO Center=  1.7D+00, -3.5D+00, -2.1D-01, r^2= 3.5D+01
   Bfn.  Coefficient  Atom+Function         Bfn.  Coefficient  Atom+Function  
  ----- ------------  ---------------      ----- ------------  ---------------
    63      3.538319   5 C  px              234      2.676772  15 C  py        
   140      2.429470   9 C  s               198      2.430794  12 H  s         
[...]
  ----- ------------  ---------------      ----- ------------  ---------------
   318     16.051670  19 C  py              300     15.373206  18 H  s         
   147    -13.854305   9 C  px              226    -13.417589  15 C  s         
   235     12.118229  15 C  pz              716    -11.828700  41 N  s         
   106     11.476292   7 N  s                56     10.776842   5 C  s         
    13      9.935883   2 C  s               140     -9.687821   9 C  s         

 Vector  216  Occ=0.000000D+00  E= 4.533965D-01
              MO Center= -1.7D-02, -1.6D+00, -3.0D-01, r^2= 2.3D+01
   Bfn.  Coefficient  Atom+Function         Bfn.  Coefficient  Atom+Function  
  ----- ------------  ---------------      ----- ------------  ---------------
   226     20.300564  15 C  s               140     14.224521   9 C  s         
    13     -9.384307   2 C  s               539      8.903404  32 C  s         
   505     -7.310358  30 C  s                81      7.097705   6 O  s         
   480     -6.270370  29 C  s               421     -6.135247  25 C  pz        
   666     -6.149771  39 C  s                65      6.021969   5 C  pz        

 Vector  217  Occ=0.000000D+00  E= 4.578791D-01
              MO Center= -1.0D-01,  1.3D+00, -1.9D-01, r^2= 2.7D+01
   Bfn.  Coefficient  Atom+Function         Bfn.  Coefficient  Atom+Function  
  ----- ------------  ---------------      ----- ------------  ---------------
   446     17.236269  27 N  s               300     13.275466  18 H  s         
   649    -12.581174  38 C  py              174      8.972506  11 C  s         
   488      8.860617  29 C  py              487     -8.629924  29 C  px        
   666     -8.550863  39 C  s               318      7.953632  19 C  py        
   573      7.764448  34 C  s               344     -7.227348  21 C  s         

 Vector  218  Occ=0.000000D+00  E= 4.602245D-01
              MO Center=  4.2D-01,  2.9D-01,  7.2D-02, r^2= 2.3D+01
   Bfn.  Coefficient  Atom+Function         Bfn.  Coefficient  Atom+Function  
  ----- ------------  ---------------      ----- ------------  ---------------
   488    -14.209666  29 C  py              487     13.966628  29 C  px        
   226    -12.657452  15 C  s               573    -12.030368  34 C  s         
   234    -10.900979  15 C  py              344      9.097219  21 C  s         
   641      8.946289  38 C  s               446     -8.589056  27 N  s         
   235     -8.544315  15 C  pz              649      8.353163  38 C  py        

 Vector  219  Occ=0.000000D+00  E= 4.644253D-01
              MO Center= -1.1D+00,  1.1D-01, -1.7D-01, r^2= 2.3D+01
   Bfn.  Coefficient  Atom+Function         Bfn.  Coefficient  Atom+Function  
  ----- ------------  ---------------      ----- ------------  ---------------
   539      6.575842  32 C  s               396      5.981883  24 C  pz        
   666      5.401788  39 C  s               675      5.186000  39 C  pz        
   284      4.550172  17 N  py              344     -4.571057  21 C  s         
   139     -4.240599   9 C  s               505     -4.249135  30 C  s         
   446      4.088751  27 N  s               367     -3.816393  22 H  s         

 Vector  220  Occ=0.000000D+00  E= 4.669605D-01
              MO Center=  1.7D-01, -2.2D+00, -8.6D-02, r^2= 2.2D+01
   Bfn.  Coefficient  Atom+Function         Bfn.  Coefficient  Atom+Function  
  ----- ------------  ---------------      ----- ------------  ---------------
   300     28.034743  18 H  s                13    -15.425436   2 C  s         
   148    -12.434288   9 C  py              412    -12.433870  25 C  s         
   276    -11.685143  17 N  s               387    -11.022015  24 C  s         
   641     10.566231  38 C  s               446      9.725701  27 N  s         
    56     -9.467283   5 C  s               666     -8.591647  39 C  s         

 Vector  221  Occ=0.000000D+00  E= 4.700486D-01
              MO Center=  1.1D-01, -2.9D-01, -1.3D-01, r^2= 2.5D+01
   Bfn.  Coefficient  Atom+Function         Bfn.  Coefficient  Atom+Function  
  ----- ------------  ---------------      ----- ------------  ---------------
   641     19.653632  38 C  s               396     17.562744  24 C  pz        
   666     15.009328  39 C  s               573    -13.948929  34 C  s         
   276    -12.578860  17 N  s               539     11.927784  32 C  s         
   716    -10.935616  41 N  s               487     10.439446  29 C  px        
   649      8.998840  38 C  py              648     -8.757793  38 C  px        

 Vector  222  Occ=0.000000D+00  E= 4.743453D-01
              MO Center=  3.1D-01,  6.2D-01, -4.4D-01, r^2= 2.5D+01
   Bfn.  Coefficient  Atom+Function         Bfn.  Coefficient  Atom+Function  
  ----- ------------  ---------------      ----- ------------  ---------------
   649     16.025328  38 C  py              276     14.820308  17 N  s         
   488    -13.875109  29 C  py              226    -13.119057  15 C  s         
   716     12.513395  41 N  s                13     12.067672   2 C  s         
   487     12.109841  29 C  px              344     11.812208  21 C  s         
   573    -10.295401  34 C  s                63    -10.087131   5 C  px        

 Vector  223  Occ=0.000000D+00  E= 4.804110D-01
              MO Center=  2.7D-01,  9.3D-03, -3.5D-01, r^2= 2.4D+01
   Bfn.  Coefficient  Atom+Function         Bfn.  Coefficient  Atom+Function  
  ----- ------------  ---------------      ----- ------------  ---------------
   446     10.443998  27 N  s               488     10.300262  29 C  py        
   300      9.289227  18 H  s               666     -8.012733  39 C  s         
   487     -7.490779  29 C  px              319     -6.612465  19 C  pz        
   436      6.097257  26 H  s               650      6.020784  38 C  pz        
   310     -5.468814  19 C  s               716      5.444961  41 N  s         

 Vector  224  Occ=0.000000D+00  E= 4.824330D-01
              MO Center= -2.8D-01,  7.0D-03, -1.6D-01, r^2= 2.5D+01
   Bfn.  Coefficient  Atom+Function         Bfn.  Coefficient  Atom+Function  
  ----- ------------  ---------------      ----- ------------  ---------------
   226     14.366206  15 C  s               276     -9.539307  17 N  s         
   650      8.636226  38 C  pz              505      8.319977  30 C  s         
   666      8.170841  39 C  s               344     -7.534015  21 C  s         
   140      7.487999   9 C  s               488     -7.447511  29 C  py        
   631      6.761366  37 H  s               394      6.307201  24 C  px        

 Vector  225  Occ=0.000000D+00  E= 4.860371D-01
              MO Center= -2.4D-01, -1.2D+00, -4.0D-01, r^2= 2.5D+01
   Bfn.  Coefficient  Atom+Function         Bfn.  Coefficient  Atom+Function  
  ----- ------------  ---------------      ----- ------------  ---------------
   666     12.429009  39 C  s               539     -8.720718  32 C  s         
   607      8.714208  36 C  s               716     -8.537479  41 N  s         
   344     -7.838477  21 C  s               235      7.096950  15 C  pz        
   394      6.458123  24 C  px              206     -6.227269  13 H  s         
   276     -6.168631  17 N  s               234      5.443965  15 C  py        

 Vector  226  Occ=0.000000D+00  E= 4.889343D-01
              MO Center= -1.2D-01,  9.7D-01,  3.2D-01, r^2= 2.1D+01
   Bfn.  Coefficient  Atom+Function         Bfn.  Coefficient  Atom+Function  
  ----- ------------  ---------------      ----- ------------  ---------------
   174     15.657387  11 C  s               480    -12.343133  29 C  s         
   539     10.570518  32 C  s               505    -10.313460  30 C  s         
   276      9.803985  17 N  s               488      9.671486  29 C  py        
   666     -9.610051  39 C  s               446      9.243363  27 N  s         
   283     -8.748444  17 N  px              344     -8.779938  21 C  s         

 Vector  227  Occ=0.000000D+00  E= 4.894765D-01
              MO Center=  2.5D-01, -1.3D+00,  7.1D-02, r^2= 2.5D+01
   Bfn.  Coefficient  Atom+Function         Bfn.  Coefficient  Atom+Function  
  ----- ------------  ---------------      ----- ------------  ---------------
   666     19.284006  39 C  s                56    -14.824233   5 C  s         
   234    -10.236775  15 C  py              539     -9.414975  32 C  s         
   641     -8.819214  38 C  s               113      8.235671   7 N  px        
   284     -8.121950  17 N  py              351      7.751728  21 C  px        
   650      7.386236  38 C  pz              716     -7.386002  41 N  s         

 Vector  228  Occ=0.000000D+00  E= 4.937203D-01
              MO Center=  2.0D-01,  6.7D-02, -3.7D-02, r^2= 2.4D+01
   Bfn.  Coefficient  Atom+Function         Bfn.  Coefficient  Atom+Function  
  ----- ------------  ---------------      ----- ------------  ---------------
   394     14.141486  24 C  px              641     13.555913  38 C  s         
   573    -11.769570  34 C  s               174     10.886889  11 C  s         
   284     10.792605  17 N  py              395    -10.654745  24 C  py        
   539     10.248267  32 C  s                12      9.739393   2 C  s         
   396      9.142992  24 C  pz              226     -8.479623  15 C  s         

 Vector  229  Occ=0.000000D+00  E= 4.959383D-01
              MO Center=  2.3D-01, -9.5D-01,  5.0D-01, r^2= 2.2D+01
   Bfn.  Coefficient  Atom+Function         Bfn.  Coefficient  Atom+Function  
  ----- ------------  ---------------      ----- ------------  ---------------
   300     19.176243  18 H  s               716     -9.680201  41 N  s         
    13     -9.607162   2 C  s               367     -8.852730  22 H  s         
   446      8.567227  27 N  s                12      8.328786   2 C  s         
   420      7.800819  25 C  py              395     -7.424509  24 C  py        
   106      7.197915   7 N  s               174      7.125061  11 C  s         

 Vector  230  Occ=0.000000D+00  E= 4.997574D-01
              MO Center=  2.3D-01, -6.9D-02,  3.0D-02, r^2= 2.2D+01
   Bfn.  Coefficient  Atom+Function         Bfn.  Coefficient  Atom+Function  
  ----- ------------  ---------------      ----- ------------  ---------------
   716      9.197487  41 N  s               319      9.053402  19 C  pz        
   344     -9.079065  21 C  s               174      7.405346  11 C  s         
   487     -7.387353  29 C  px              446      7.225185  27 N  s         
   226     -6.857578  15 C  s               106      6.679905   7 N  s         
   317      6.710216  19 C  px              148      6.418384   9 C  py        

 Vector  231  Occ=0.000000D+00  E= 5.037914D-01
              MO Center= -1.8D-01, -5.2D-01,  1.5D-01, r^2= 2.1D+01
   Bfn.  Coefficient  Atom+Function         Bfn.  Coefficient  Atom+Function  
  ----- ------------  ---------------      ----- ------------  ---------------
   666     12.172942  39 C  s               505     10.805114  30 C  s         
   641    -10.403338  38 C  s               446    -10.266646  27 N  s         
   395     -9.662600  24 C  py              174     -8.894286  11 C  s         
   573      8.923868  34 C  s               276     -8.113782  17 N  s         
   650      8.022975  38 C  pz              318     -7.231463  19 C  py        


 center of mass
 --------------
 x =  -0.02902026 y =   0.07371904 z =   0.01605032

 moments of inertia (a.u.)
 ------------------
       10708.905699083194           0.000000000001           0.000000000002
           0.000000000001        4330.477558474731          -0.000000000001
           0.000000000002          -0.000000000001       13058.589841379993

  Mulliken analysis of the total density
  --------------------------------------

    Atom       Charge   Shell Charges
 -----------   ------   -------------------------------------------------------
    1 H    1     0.85   0.76  0.12  0.00  0.03 -0.06
    2 C    6     6.24   2.01  0.66  0.23  0.12  2.07  1.00 -0.00  0.06  0.10
    3 H    1     1.00   0.76  0.25  0.01  0.03 -0.05
    4 H    1     0.86   0.76  0.13  0.00  0.03 -0.06
    5 C    6     5.13   2.01  0.68  0.07 -0.06  1.89  0.34 -0.04  0.24  0.00
    6 O    8     8.77   2.01  0.81  0.99  0.14  2.80  1.87  0.15  0.02 -0.01
    7 N    7     7.57   2.01  0.72  0.82 -0.08  2.45  1.45  0.11  0.05  0.05
    8 H    1     0.98   0.77  0.21 -0.01  0.05 -0.04
    9 C    6     6.82   2.01  0.66  0.15 -0.00  1.99  1.59  0.04  0.14  0.24
   10 H    1     1.07   0.78  0.23  0.01  0.03  0.02
   11 C    6     5.32   2.01  0.66  0.06  0.02  2.04  0.50 -0.01  0.07 -0.02
   12 H    1     1.00   0.77  0.28 -0.00  0.03 -0.07
   13 H    1     0.96   0.77  0.22  0.01  0.03 -0.07
   14 H    1     1.03   0.77  0.29  0.00  0.03 -0.06
   15 C    6     4.60   2.01  0.68 -0.04  0.04  1.89  0.14  0.10  0.24 -0.45
   16 O    8     8.77   2.01  0.82  1.03  0.16  2.78  1.84  0.14  0.01 -0.01
   17 N    7     7.67   2.01  0.72  0.87 -0.09  2.45  1.43  0.21  0.05  0.03
   18 H    1     0.99   0.74  0.31  0.06  0.06 -0.18
   19 C    6     6.14   2.01  0.67  0.08  0.00  1.99  1.10  0.08  0.14  0.07
   20 H    1     1.02   0.78  0.21 -0.00  0.03 -0.00
   21 C    6     5.68   2.01  0.66  0.11 -0.04  2.04  0.81 -0.01  0.10  0.01
   22 H    1     0.88   0.78  0.16 -0.02  0.03 -0.06
   23 H    1     1.03   0.78  0.29  0.01  0.03 -0.08
   24 C    6     6.37   2.01  0.65  0.15 -0.20  2.04  1.04  0.39  0.12  0.16
   25 C    6     4.86   2.01  0.66 -0.02 -0.16  1.99  0.42  0.03  0.12 -0.19
   26 H    1     1.36   0.77  0.59 -0.01  0.03 -0.02
   27 N    7     8.11   2.01  0.72  1.18 -0.02  2.44  1.52  0.03  0.06  0.18
   28 H    1     1.06   0.77  0.24 -0.00  0.05 -0.00
   29 C    6     5.68   2.01  0.66  0.19 -0.09  2.00  0.46  0.29  0.15 -0.00
   30 C    6     5.24   2.01  0.65  0.24 -0.48  2.02  0.70  0.17  0.09 -0.16
   31 H    1     1.50   0.78  0.70 -0.01  0.03 -0.00
   32 C    6     5.50   2.01  0.66  0.11 -0.40  1.99  0.88  0.38  0.09 -0.23
   33 H    1     1.57   0.78  0.75 -0.01  0.03  0.02
   34 C    6     5.10   2.01  0.66  0.05 -0.51  2.01  0.77  0.30  0.09 -0.28
   35 H    1     1.60   0.78  0.79 -0.02  0.03  0.02
   36 C    6     5.23   2.01  0.66  0.10 -0.36  1.99  0.82  0.13  0.09 -0.22
   37 H    1     1.65   0.78  0.82  0.02  0.03 -0.00
   38 C    6     6.28   2.01  0.66  0.25 -0.31  2.03  1.31  0.11  0.12  0.10
   39 C    6     4.39   2.01  0.68  0.07 -0.16  1.89 -0.23  0.01  0.24 -0.11
   40 O    8     8.93   2.01  0.82  1.05  0.23  2.79  1.86  0.16  0.01 -0.00
   41 N    7     7.28   2.01  0.72  0.83 -0.11  2.47  1.24  0.09  0.04 -0.01
   42 H    1     0.99   0.75  0.21 -0.01  0.05 -0.02
   43 H    1     0.91   0.76  0.17 -0.02  0.05 -0.05

       Multipole analysis of the density wrt the origin
       ------------------------------------------------

     L   x y z        total         open         nuclear
     -   - - -        -----         ----         -------
     0   0 0 0      0.000000      0.000000    168.000000

     1   1 0 0      2.558178      0.000000     -0.000000
     1   0 1 0     -2.389905      0.000000      0.000000
     1   0 0 1     -1.012311      0.000000      0.000000

     2   2 0 0   -110.945894      0.000000   1806.108940
     2   1 1 0     -5.939226      0.000000    -33.900583
     2   1 0 1      5.745446      0.000000     23.052611
     2   0 2 0    -85.977322      0.000000   5321.126236
     2   0 1 1     -6.185180      0.000000     -4.329134
     2   0 0 2    -97.637933      0.000000    587.638019


 Task  times  cpu:    27993.7s     wall:    28115.4s


                                NWChem Input Module
                                -------------------


 Summary of allocated global arrays
-----------------------------------
  No active global arrays


MA_summarize_allocated_blocks: starting scan ...
MA_summarize_allocated_blocks: scan completed: 0 heap blocks, 0 stack blocks
MA usage statistics:

	allocation statistics:
					      heap	     stack
					      ----	     -----
	current number of blocks	         0	         0
	maximum number of blocks	        16	        14
	current total bytes		         0	         0
	maximum total bytes		    162048	  33964440
	maximum total K-bytes		       163	     33965
	maximum total M-bytes		         1	        34


                                     CITATION
                                     --------
                Please cite the following reference when publishing
                           results obtained with NWChem:

          E. Apra, E. J. Bylaska, W. A. de Jong, N. Govind, K. Kowalski,
       T. P. Straatsma, M. Valiev, H. J. J. van Dam, Y. Alexeev, J. Anchell,
       V. Anisimov, F. W. Aquino, R. Atta-Fynn, J. Autschbach, N. P. Bauman,
     J. C. Becca, D. E. Bernholdt, K. Bhaskaran-Nair, S. Bogatko, P. Borowski,
         J. Boschen, J. Brabec, A. Bruner, E. Cauet, Y. Chen, G. N. Chuev,
      C. J. Cramer, J. Daily, M. J. O. Deegan, T. H. Dunning Jr., M. Dupuis,
   K. G. Dyall, G. I. Fann, S. A. Fischer, A. Fonari, H. Fruchtl, L. Gagliardi,
      J. Garza, N. Gawande, S. Ghosh, K. Glaesemann, A. W. Gotz, J. Hammond,
       V. Helms, E. D. Hermes, K. Hirao, S. Hirata, M. Jacquelin, L. Jensen,
   B. G. Johnson, H. Jonsson, R. A. Kendall, M. Klemm, R. Kobayashi, V. Konkov,
      S. Krishnamoorthy, M. Krishnan, Z. Lin, R. D. Lins, R. J. Littlefield,
      A. J. Logsdail, K. Lopata, W. Ma, A. V. Marenich, J. Martin del Campo,
   D. Mejia-Rodriguez, J. E. Moore, J. M. Mullin, T. Nakajima, D. R. Nascimento,
    J. A. Nichols, P. J. Nichols, J. Nieplocha, A. Otero-de-la-Roza, B. Palmer,
    A. Panyala, T. Pirojsirikul, B. Peng, R. Peverati, J. Pittner, L. Pollack,
   R. M. Richard, P. Sadayappan, G. C. Schatz, W. A. Shelton, D. W. Silverstein,
   D. M. A. Smith, T. A. Soares, D. Song, M. Swart, H. L. Taylor, G. S. Thomas,
            V. Tipparaju, D. G. Truhlar, K. Tsemekhman, T. Van Voorhis,
      A. Vazquez-Mayagoitia, P. Verma, O. Villa, A. Vishnu, K. D. Vogiatzis,
        D. Wang, J. H. Weare, M. J. Williamson, T. L. Windus, K. Wolinski,
        A. T. Wong, Q. Wu, C. Yang, Q. Yu, M. Zacharias, Z. Zhang, Y. Zhao,
                                and R. J. Harrison
                        "NWChem: Past, present, and future
                         J. Chem. Phys. 152, 184102 (2020)
                               doi:10.1063/5.0004997

                                      AUTHORS
                                      -------
  E. Apra, E. J. Bylaska, N. Govind, K. Kowalski, M. Valiev, D. Mejia-Rodriguez,
       A. Kunitsa, N. P. Bauman, A. Panyala, W. A. de Jong, T. P. Straatsma,
   H. J. J. van Dam, D. Wang, T. L. Windus, J. Hammond, J. Autschbach, A. Woods,
    K. Bhaskaran-Nair, J. Brabec, K. Lopata, S. A. Fischer, S. Krishnamoorthy,
     M. Jacquelin, W. Ma, M. Klemm, O. Villa, Y. Chen, V. Anisimov, F. Aquino,
     S. Hirata, M. T. Hackler, E. Hermes, L. Jensen, J. E. Moore, J. C. Becca,
      V. Konjkov, T. Risthaus, M. Malagoli, A. Marenich, A. Otero-de-la-Roza,
        J. Mullin, P. Nichols, R. Peverati, J. Pittner, Y. Zhao, P.-D. Fan,
        A. Fonari, M. J. Williamson, R. J. Harrison, J. R. Rehr, M. Dupuis,
     D. Silverstein, D. M. A. Smith, J. Nieplocha, V. Tipparaju, M. Krishnan,
     B. E. Van Kuiken, A. Vazquez-Mayagoitia, M. Swart, Q. Wu, T. Van Voorhis,
     A. A. Auer, M. Nooijen, L. D. Crosby, E. Brown, G. Cisneros, G. I. Fann,
   H. Fruchtl, J. Garza, K. Hirao, R. A. Kendall, J. A. Nichols, K. Tsemekhman,
    K. Wolinski, J. Anchell, D. E. Bernholdt, P. Borowski, T. Clark, D. Clerc,
   H. Dachsel, M. J. O. Deegan, K. Dyall, D. Elwood, E. Glendening, M. Gutowski,
   A. C. Hess, J. Jaffe, B. G. Johnson, J. Ju, R. Kobayashi, R. Kutteh, Z. Lin,
   R. Littlefield, X. Long, B. Meng, T. Nakajima, S. Niu, L. Pollack, M. Rosing,
   K. Glaesemann, G. Sandrone, M. Stave, H. Taylor, G. Thomas, J. H. van Lenthe,
                               A. T. Wong, Z. Zhang.

 Total times  cpu:    27993.7s     wall:    28115.9s
