export TMOUT=5400
export TMPDIR=/tmp
export PTMPDIR=/tmp/ptmp
 argument  1 = ALA_GLY_5.nw
                                         
                                         


             Northwest Computational Chemistry Package (NWChem) 7.2.0
             --------------------------------------------------------


                    Environmental Molecular Sciences Laboratory
                       Pacific Northwest National Laboratory
                                Richland, WA 99352

                              Copyright (c) 1994-2022
                       Pacific Northwest National Laboratory
                            Battelle Memorial Institute

             NWChem is an open-source computational chemistry package
                        distributed under the terms of the
                      Educational Community License (ECL) 2.0
             A copy of the license is included with this distribution
                              in the LICENSE.TXT file

                                  ACKNOWLEDGMENT
                                  --------------

            This software and its documentation were developed at the
            EMSL at Pacific Northwest National Laboratory, a multiprogram
            national laboratory, operated for the U.S. Department of Energy
            by Battelle under Contract Number DE-AC05-76RL01830. Support
            for this work was provided by the Department of Energy Office
            of Biological and Environmental Research, Office of Basic
            Energy Sciences, and the Office of Advanced Scientific Computing.


           Job information
           ---------------

    hostname        = nova18-18
    program         = /opt/rit/el9/20230413/app/linux-rhel9-x86_64_v3/gcc-11.2.1/nwchem-7.2.0-oxtctbuhfuzyfaoziquq6bki22grib3g/bin/nwchem
    date            = Thu Jun 26 17:38:34 2025

    compiled        = Wed_May_17_23:46:39_2023
    source          = /tmp/root/spack-stage/spack-stage-nwchem-7.2.0-oxtctbuhfuzyfaoziquq6bki22grib3g/spack-src
    nwchem branch   = 7.2.0
    nwchem revision = d0d141fd
    ga revision     = 5.8.0
    use scalapack   = T
    input           = ALA_GLY_5.nw
    prefix          = ALA_GLY_5.
    data base       = ./ALA_GLY_5.db
    status          = startup
    nproc           =        8
    time left       =     -1s



           Memory information
           ------------------

    heap     =   26214394 doubles =    200.0 Mbytes
    stack    =   26214399 doubles =    200.0 Mbytes
    global   =   52428800 doubles =    400.0 Mbytes (distinct from heap & stack)
    total    =  104857593 doubles =    800.0 Mbytes
    verify   = yes
    hardfail = no 


           Directory information
           ---------------------

  0 permanent = .
  0 scratch   = .




                                NWChem Input Module
                                -------------------



 Scaling coordinates for geometry "geometry" by  1.889725989
 (inverse scale =  0.529177249)

 C1  symmetry detected

          ------
          auto-z
          ------
  no constraints, skipping    0.0000000000000000     
  no constraints, skipping    0.0000000000000000     


                             Geometry "geometry" -> ""
                             -------------------------

 Output coordinates in angstroms (scale by  1.889725989 to convert to a.u.)

  No.       Tag          Charge          X              Y              Z
 ---- ---------------- ---------- -------------- -------------- --------------
    1 H                    1.0000     1.69962857     4.37997741    -0.82956274
    2 C                    6.0000     1.22951376     4.37881663     0.15136168
    3 H                    1.0000     0.84460645     5.37386040     0.37327215
    4 H                    1.0000     1.95322338     4.09017147     0.91126586
    5 C                    6.0000     0.08011089     3.39857456     0.15490002
    6 O                    8.0000    -1.05796677     3.78461326     0.38315505
    7 N                    7.0000     0.38326134     2.12646364    -0.09398472
    8 H                    1.0000     1.35021304     1.87779627    -0.23872914
    9 C                    6.0000    -0.58856217     1.03212948    -0.11521665
   10 H                    1.0000    -1.37661156     1.24700230     0.60748096
   11 C                    6.0000    -1.21931853     0.95327279    -1.51327996
   12 H                    1.0000    -1.70300249     1.90217356    -1.75301763
   13 H                    1.0000    -0.45085001     0.74457505    -2.25837082
   14 H                    1.0000    -1.96925137     0.16231269    -1.54163247
   15 C                    6.0000     0.06884598    -0.30307714     0.28161559
   16 O                    8.0000     1.28483616    -0.45930844     0.17114087
   17 N                    7.0000    -0.74004758    -1.27695736     0.71290845
   18 H                    1.0000    -1.72838539    -1.08168851     0.75230946
   19 C                    6.0000    -0.29927272    -2.60958779     1.15420840
   20 H                    1.0000     0.55592609    -2.49422222     1.82038464
   21 H                    1.0000    -1.10362125    -3.08315993     1.71779324
   22 C                    6.0000     0.11563306    -3.56321392     0.02498726
   23 O                    8.0000    -0.32486555    -4.70354867    -0.01160027
   24 N                    7.0000     0.91722292    -3.11892843    -0.93223534
   25 H                    1.0000     1.17620201    -3.74659405    -1.67352657
   26 H                    1.0000     1.29113348    -2.18178629    -0.86750893

      Atomic Mass 
      ----------- 

      H                  1.007825
      C                 12.000000
      O                 15.994910
      N                 14.003070


 Effective nuclear repulsion energy (a.u.)     815.3107917566

            Nuclear Dipole moment (a.u.) 
            ----------------------------
        X                 Y               Z
 ---------------- ---------------- ----------------
    -0.0000000000     0.0000000000     0.0000000000



                                Z-matrix (autoz)
                                -------- 

 Units are Angstrom for bonds and degrees for angles

      Type          Name      I     J     K     L     M      Value
      ----------- --------  ----- ----- ----- ----- ----- ----------
    1 Stretch                  1     2                       1.08776
    2 Stretch                  2     3                       1.08973
    3 Stretch                  2     4                       1.08836
    4 Stretch                  2     5                       1.51063
    5 Stretch                  5     6                       1.22325
    6 Stretch                  5     7                       1.33121
    7 Stretch                  7     8                       1.00885
    8 Stretch                  7     9                       1.46371
    9 Stretch                  9    10                       1.09063
   10 Stretch                  9    11                       1.53579
   11 Stretch                  9    15                       1.54027
   12 Stretch                 11    12                       1.09171
   13 Stretch                 11    13                       1.09053
   14 Stretch                 11    14                       1.09033
   15 Stretch                 15    16                       1.23095
   16 Stretch                 15    17                       1.33745
   17 Stretch                 17    18                       1.00821
   18 Stretch                 17    19                       1.47137
   19 Stretch                 19    20                       1.09017
   20 Stretch                 19    21                       1.09036
   21 Stretch                 19    22                       1.53515
   22 Stretch                 22    23                       1.22300
   23 Stretch                 22    24                       1.32522
   24 Stretch                 24    25                       1.00526
   25 Stretch                 24    26                       1.01106
   26 Bend                     1     2     3               109.59183
   27 Bend                     1     2     4               110.03133
   28 Bend                     1     2     5               109.36860
   29 Bend                     2     5     6               120.23524
   30 Bend                     2     5     7               116.51165
   31 Bend                     3     2     4               109.56379
   32 Bend                     3     2     5               108.86167
   33 Bend                     4     2     5               109.40343
   34 Bend                     5     7     8               118.72694
   35 Bend                     5     7     9               124.46948
   36 Bend                     6     5     7               123.25254
   37 Bend                     7     9    10               108.83414
   38 Bend                     7     9    11               108.92183
   39 Bend                     7     9    15               111.16083
   40 Bend                     8     7     9               116.74395
   41 Bend                     9    11    12               109.70870
   42 Bend                     9    11    13               110.02185
   43 Bend                     9    11    14               110.08437
   44 Bend                     9    15    16               120.56558
   45 Bend                     9    15    17               117.13974
   46 Bend                    10     9    11               108.45575
   47 Bend                    10     9    15               107.96666
   48 Bend                    11     9    15               111.42711
   49 Bend                    12    11    13               109.17818
   50 Bend                    12    11    14               108.66851
   51 Bend                    13    11    14               109.15242
   52 Bend                    15    17    18               117.67491
   53 Bend                    15    17    19               125.10250
   54 Bend                    16    15    17               122.27449
   55 Bend                    17    19    20               108.81007
   56 Bend                    17    19    21               109.11167
   57 Bend                    17    19    22               115.02199
   58 Bend                    18    17    19               117.21666
   59 Bend                    19    22    23               120.25595
   60 Bend                    19    22    24               119.11321
   61 Bend                    20    19    21               107.98712
   62 Bend                    20    19    22               107.65069
   63 Bend                    21    19    22               108.04602
   64 Bend                    22    24    25               118.62958
   65 Bend                    22    24    26               119.22225
   66 Bend                    23    22    24               120.58691
   67 Bend                    25    24    26               122.05067
   68 Torsion                  1     2     5     6        -119.63475
   69 Torsion                  1     2     5     7          60.62976
   70 Torsion                  2     5     7     8           2.03291
   71 Torsion                  2     5     7     9         179.12768
   72 Torsion                  3     2     5     6           0.08107
   73 Torsion                  3     2     5     7        -179.65442
   74 Torsion                  4     2     5     6         119.78351
   75 Torsion                  4     2     5     7         -59.95198
   76 Torsion                  5     7     9    10         -32.31787
   77 Torsion                  5     7     9    11          85.74991
   78 Torsion                  5     7     9    15        -151.10208
   79 Torsion                  6     5     7     8        -177.69382
   80 Torsion                  6     5     7     9          -0.59905
   81 Torsion                  7     9    11    12         -58.76049
   82 Torsion                  7     9    11    13          61.36742
   83 Torsion                  7     9    11    14        -178.29887
   84 Torsion                  7     9    15    16         -22.23981
   85 Torsion                  7     9    15    17         159.35826
   86 Torsion                  8     7     9    10         144.82934
   87 Torsion                  8     7     9    11         -97.10288
   88 Torsion                  8     7     9    15          26.04513
   89 Torsion                  9    15    17    18           0.04770
   90 Torsion                  9    15    17    19        -179.03867
   91 Torsion                 10     9    11    12          59.54553
   92 Torsion                 10     9    11    13         179.67344
   93 Torsion                 10     9    11    14         -59.99284
   94 Torsion                 10     9    15    16        -141.54369
   95 Torsion                 10     9    15    17          40.05438
   96 Torsion                 11     9    15    16          99.45888
   97 Torsion                 11     9    15    17         -78.94305
   98 Torsion                 12    11     9    15         178.25089
   99 Torsion                 13    11     9    15         -61.62120
  100 Torsion                 14    11     9    15          58.71252
  101 Torsion                 15    17    19    20          45.80479
  102 Torsion                 15    17    19    21         163.40407
  103 Torsion                 15    17    19    22         -75.02522
  104 Torsion                 16    15    17    18        -178.32484
  105 Torsion                 16    15    17    19           2.58880
  106 Torsion                 17    19    22    23        -131.09622
  107 Torsion                 17    19    22    24          46.50758
  108 Torsion                 18    17    19    20        -133.28537
  109 Torsion                 18    17    19    21         -15.68608
  110 Torsion                 18    17    19    22         105.88463
  111 Torsion                 19    22    24    25        -179.33851
  112 Torsion                 19    22    24    26           4.17702
  113 Torsion                 20    19    22    23         107.44188
  114 Torsion                 20    19    22    24         -74.95432
  115 Torsion                 21    19    22    23          -8.94912
  116 Torsion                 21    19    22    24         168.65468
  117 Torsion                 23    22    24    25          -1.74285
  118 Torsion                 23    22    24    26        -178.22733


            XYZ format geometry
            -------------------
    26
 geometry
 H                     1.69962857     4.37997741    -0.82956274
 C                     1.22951376     4.37881663     0.15136168
 H                     0.84460645     5.37386040     0.37327215
 H                     1.95322338     4.09017147     0.91126586
 C                     0.08011089     3.39857456     0.15490002
 O                    -1.05796677     3.78461326     0.38315505
 N                     0.38326134     2.12646364    -0.09398472
 H                     1.35021304     1.87779627    -0.23872914
 C                    -0.58856217     1.03212948    -0.11521665
 H                    -1.37661156     1.24700230     0.60748096
 C                    -1.21931853     0.95327279    -1.51327996
 H                    -1.70300249     1.90217356    -1.75301763
 H                    -0.45085001     0.74457505    -2.25837082
 H                    -1.96925137     0.16231269    -1.54163247
 C                     0.06884598    -0.30307714     0.28161559
 O                     1.28483616    -0.45930844     0.17114087
 N                    -0.74004758    -1.27695736     0.71290845
 H                    -1.72838539    -1.08168851     0.75230946
 C                    -0.29927272    -2.60958779     1.15420840
 H                     0.55592609    -2.49422222     1.82038464
 H                    -1.10362125    -3.08315993     1.71779324
 C                     0.11563306    -3.56321392     0.02498726
 O                    -0.32486555    -4.70354867    -0.01160027
 N                     0.91722292    -3.11892843    -0.93223534
 H                     1.17620201    -3.74659405    -1.67352657
 H                     1.29113348    -2.18178629    -0.86750893

 ==============================================================================
                                internuclear distances
 ------------------------------------------------------------------------------
       center one      |      center two      | atomic units |  angstroms
 ------------------------------------------------------------------------------
    2 C                |   1 H                |     2.05557  |     1.08776
    3 H                |   2 C                |     2.05929  |     1.08973
    4 H                |   2 C                |     2.05670  |     1.08836
    5 C                |   2 C                |     2.85468  |     1.51063
    6 O                |   5 C                |     2.31161  |     1.22325
    7 N                |   5 C                |     2.51561  |     1.33121
    8 H                |   7 N                |     1.90645  |     1.00885
    9 C                |   7 N                |     2.76602  |     1.46371
   10 H                |   9 C                |     2.06100  |     1.09063
   11 C                |   9 C                |     2.90222  |     1.53579
   12 H                |  11 C                |     2.06304  |     1.09171
   13 H                |  11 C                |     2.06081  |     1.09053
   14 H                |  11 C                |     2.06043  |     1.09033
   15 C                |   9 C                |     2.91069  |     1.54027
   16 O                |  15 C                |     2.32616  |     1.23095
   17 N                |  15 C                |     2.52741  |     1.33745
   18 H                |  17 N                |     1.90525  |     1.00821
   19 C                |  17 N                |     2.78049  |     1.47137
   20 H                |  19 C                |     2.06012  |     1.09017
   21 H                |  19 C                |     2.06047  |     1.09036
   22 C                |  19 C                |     2.90102  |     1.53515
   23 O                |  22 C                |     2.31114  |     1.22300
   24 N                |  22 C                |     2.50430  |     1.32522
   25 H                |  24 N                |     1.89967  |     1.00526
   26 H                |  24 N                |     1.91062  |     1.01106
 ------------------------------------------------------------------------------
                         number of included internuclear distances:         25
 ==============================================================================



 ==============================================================================
                                 internuclear angles
 ------------------------------------------------------------------------------
        center 1       |       center 2       |       center 3       |  degrees
 ------------------------------------------------------------------------------
    1 H                |   2 C                |   3 H                |   109.59
    1 H                |   2 C                |   4 H                |   110.03
    1 H                |   2 C                |   5 C                |   109.37
    3 H                |   2 C                |   4 H                |   109.56
    3 H                |   2 C                |   5 C                |   108.86
    4 H                |   2 C                |   5 C                |   109.40
    2 C                |   5 C                |   6 O                |   120.24
    2 C                |   5 C                |   7 N                |   116.51
    6 O                |   5 C                |   7 N                |   123.25
    5 C                |   7 N                |   8 H                |   118.73
    5 C                |   7 N                |   9 C                |   124.47
    8 H                |   7 N                |   9 C                |   116.74
    7 N                |   9 C                |  10 H                |   108.83
    7 N                |   9 C                |  11 C                |   108.92
    7 N                |   9 C                |  15 C                |   111.16
   10 H                |   9 C                |  11 C                |   108.46
   10 H                |   9 C                |  15 C                |   107.97
   11 C                |   9 C                |  15 C                |   111.43
    9 C                |  11 C                |  12 H                |   109.71
    9 C                |  11 C                |  13 H                |   110.02
    9 C                |  11 C                |  14 H                |   110.08
   12 H                |  11 C                |  13 H                |   109.18
   12 H                |  11 C                |  14 H                |   108.67
   13 H                |  11 C                |  14 H                |   109.15
    9 C                |  15 C                |  16 O                |   120.57
    9 C                |  15 C                |  17 N                |   117.14
   16 O                |  15 C                |  17 N                |   122.27
   15 C                |  17 N                |  18 H                |   117.67
   15 C                |  17 N                |  19 C                |   125.10
   18 H                |  17 N                |  19 C                |   117.22
   17 N                |  19 C                |  20 H                |   108.81
   17 N                |  19 C                |  21 H                |   109.11
   17 N                |  19 C                |  22 C                |   115.02
   20 H                |  19 C                |  21 H                |   107.99
   20 H                |  19 C                |  22 C                |   107.65
   21 H                |  19 C                |  22 C                |   108.05
   19 C                |  22 C                |  23 O                |   120.26
   19 C                |  22 C                |  24 N                |   119.11
   23 O                |  22 C                |  24 N                |   120.59
   22 C                |  24 N                |  25 H                |   118.63
   22 C                |  24 N                |  26 H                |   119.22
   25 H                |  24 N                |  26 H                |   122.05
 ------------------------------------------------------------------------------
                            number of included internuclear angles:         42
 ==============================================================================



  library name resolved from: environment
  library file name is: </opt/rit/el9/20230413/app/linux-rhel9-x86_64_v3/gcc-11.2.1/nwchem-7.2.0-oxtctbuhfuzyfaoziquq6bki22grib3g/share/nwchem/libraries/>
  


 Summary of "ao basis" -> "" (cartesian)
 ------------------------------------------------------------------------------
       Tag                 Description            Shells   Functions and Types
 ---------------- ------------------------------  ------  ---------------------
 *                        aug-cc-pvdz                 on all atoms 


                      Basis "ao basis" -> "ao basis" (cartesian)
                      -----
  H (Hydrogen)
  ------------
            Exponent  Coefficients 
       -------------- ---------------------------------------------------------
  1 S  1.30100000E+01  0.019685
  1 S  1.96200000E+00  0.137977
  1 S  4.44600000E-01  0.478148

  2 S  1.22000000E-01  1.000000

  3 S  2.97400000E-02  1.000000

  4 P  7.27000000E-01  1.000000

  5 P  1.41000000E-01  1.000000

  C (Carbon)
  ----------
            Exponent  Coefficients 
       -------------- ---------------------------------------------------------
  1 S  6.66500000E+03  0.000692
  1 S  1.00000000E+03  0.005329
  1 S  2.28000000E+02  0.027077
  1 S  6.47100000E+01  0.101718
  1 S  2.10600000E+01  0.274740
  1 S  7.49500000E+00  0.448564
  1 S  2.79700000E+00  0.285074
  1 S  5.21500000E-01  0.015204

  2 S  6.66500000E+03 -0.000146
  2 S  1.00000000E+03 -0.001154
  2 S  2.28000000E+02 -0.005725
  2 S  6.47100000E+01 -0.023312
  2 S  2.10600000E+01 -0.063955
  2 S  7.49500000E+00 -0.149981
  2 S  2.79700000E+00 -0.127262
  2 S  5.21500000E-01  0.544529

  3 S  1.59600000E-01  1.000000

  4 S  4.69000000E-02  1.000000

  5 P  9.43900000E+00  0.038109
  5 P  2.00200000E+00  0.209480
  5 P  5.45600000E-01  0.508557

  6 P  1.51700000E-01  1.000000

  7 P  4.04100000E-02  1.000000

  8 D  5.50000000E-01  1.000000

  9 D  1.51000000E-01  1.000000

  O (Oxygen)
  ----------
            Exponent  Coefficients 
       -------------- ---------------------------------------------------------
  1 S  1.17200000E+04  0.000710
  1 S  1.75900000E+03  0.005470
  1 S  4.00800000E+02  0.027837
  1 S  1.13700000E+02  0.104800
  1 S  3.70300000E+01  0.283062
  1 S  1.32700000E+01  0.448719
  1 S  5.02500000E+00  0.270952
  1 S  1.01300000E+00  0.015458

  2 S  1.17200000E+04 -0.000160
  2 S  1.75900000E+03 -0.001263
  2 S  4.00800000E+02 -0.006267
  2 S  1.13700000E+02 -0.025716
  2 S  3.70300000E+01 -0.070924
  2 S  1.32700000E+01 -0.165411
  2 S  5.02500000E+00 -0.116955
  2 S  1.01300000E+00  0.557368

  3 S  3.02300000E-01  1.000000

  4 S  7.89600000E-02  1.000000

  5 P  1.77000000E+01  0.043018
  5 P  3.85400000E+00  0.228913
  5 P  1.04600000E+00  0.508728

  6 P  2.75300000E-01  1.000000

  7 P  6.85600000E-02  1.000000

  8 D  1.18500000E+00  1.000000

  9 D  3.32000000E-01  1.000000

  N (Nitrogen)
  ------------
            Exponent  Coefficients 
       -------------- ---------------------------------------------------------
  1 S  9.04600000E+03  0.000700
  1 S  1.35700000E+03  0.005389
  1 S  3.09300000E+02  0.027406
  1 S  8.77300000E+01  0.103207
  1 S  2.85600000E+01  0.278723
  1 S  1.02100000E+01  0.448540
  1 S  3.83800000E+00  0.278238
  1 S  7.46600000E-01  0.015440

  2 S  9.04600000E+03 -0.000153
  2 S  1.35700000E+03 -0.001208
  2 S  3.09300000E+02 -0.005992
  2 S  8.77300000E+01 -0.024544
  2 S  2.85600000E+01 -0.067459
  2 S  1.02100000E+01 -0.158078
  2 S  3.83800000E+00 -0.121831
  2 S  7.46600000E-01  0.549003

  3 S  2.24800000E-01  1.000000

  4 S  6.12400000E-02  1.000000

  5 P  1.35500000E+01  0.039919
  5 P  2.91700000E+00  0.217169
  5 P  7.97300000E-01  0.510319

  6 P  2.18500000E-01  1.000000

  7 P  5.61100000E-02  1.000000

  8 D  8.17000000E-01  1.000000

  9 D  2.30000000E-01  1.000000



 Summary of "ao basis" -> "ao basis" (cartesian)
 ------------------------------------------------------------------------------
       Tag                 Description            Shells   Functions and Types
 ---------------- ------------------------------  ------  ---------------------
 H                        aug-cc-pvdz                5        9   3s2p
 C                        aug-cc-pvdz                9       25   4s3p2d
 O                        aug-cc-pvdz                9       25   4s3p2d
 N                        aug-cc-pvdz                9       25   4s3p2d


                                 NWChem SCF Module
                                 -----------------



  ao basis        = "ao basis"
  functions       =   442
  atoms           =    26
  closed shells   =    50
  open shells     =     0
  charge          =   0.00
  wavefunction    = RHF 
  input vectors   = atomic
  output vectors  = ./ALA_GLY_5.movecs
  use symmetry    = F
  symmetry adapt  = F


 Summary of "ao basis" -> "ao basis" (cartesian)
 ------------------------------------------------------------------------------
       Tag                 Description            Shells   Functions and Types
 ---------------- ------------------------------  ------  ---------------------
 H                        aug-cc-pvdz                5        9   3s2p
 C                        aug-cc-pvdz                9       25   4s3p2d
 O                        aug-cc-pvdz                9       25   4s3p2d
 N                        aug-cc-pvdz                9       25   4s3p2d



 Forming initial guess at       2.2s


 !! The overlap matrix has   1 vectors deemed linearly dependent with
    eigenvalues:
 4.13D-06


      Superposition of Atomic Density Guess
      -------------------------------------

 Sum of atomic energies:        -657.36908239

      Non-variational initial energy
      ------------------------------

 Total energy =    -665.521105
 1-e energy   =   -2511.947986
 2-e energy   =    1031.116090
 HOMO         =      -0.307860
 LUMO         =       0.012024


 Starting SCF solution at     175.0s



 ----------------------------------------------
         Quadratically convergent ROHF

 Convergence threshold     :          1.000E-04
 Maximum no. of iterations :           30
 Final Fock-matrix accuracy:          1.000E-10
 ----------------------------------------------


              iter       energy          gnorm     gmax       time
             ----- ------------------- --------- --------- --------
                 1     -660.4110180095  2.31D+00  1.56D-01    261.8
                 2     -660.6932206801  7.42D-01  4.44D-02    469.3
                 3     -660.7418039715  6.07D-02  4.70D-03    748.4
                 4     -660.7423918425  3.66D-03  3.40D-04   1171.1
                 5     -660.7423943864  7.79D-06  6.00D-07   1794.6


       Final RHF  results 
       ------------------ 

         Total SCF energy =   -660.742394386390
      One-electron energy =  -2520.553135980052
      Two-electron energy =   1044.499949837091
 Nuclear repulsion energy =    815.310791756570

        Time for solution =   1667.1s


             Final eigenvalues
             -----------------

              1      
    1  -20.5636
    2  -20.5268
    3  -20.5267
    4  -15.6349
    5  -15.6039
    6  -15.5895
    7  -11.3930
    8  -11.3615
    9  -11.3590
   10  -11.3144
   11  -11.3101
   12  -11.2508
   13  -11.2458
   14   -1.4240
   15   -1.3897
   16   -1.3885
   17   -1.2729
   18   -1.2526
   19   -1.2194
   20   -1.0778
   21   -1.0157
   22   -0.9949
   23   -0.9082
   24   -0.8419
   25   -0.8033
   26   -0.7991
   27   -0.7555
   28   -0.7453
   29   -0.6964
   30   -0.6834
   31   -0.6683
   32   -0.6578
   33   -0.6423
   34   -0.6273
   35   -0.6021
   36   -0.6011
   37   -0.5966
   38   -0.5895
   39   -0.5728
   40   -0.5575
   41   -0.5541
   42   -0.5456
   43   -0.5394
   44   -0.5097
   45   -0.4629
   46   -0.4518
   47   -0.4249
   48   -0.4147
   49   -0.4093
   50   -0.4003
   51    0.0269
   52    0.0326
   53    0.0379
   54    0.0420
   55    0.0539
   56    0.0565
   57    0.0580
   58    0.0619
   59    0.0686
   60    0.0763

                       ROHF Final Molecular Orbital Analysis
                       -------------------------------------

 Vector   14  Occ=2.000000D+00  E=-1.424009D+00
              MO Center=  6.9D-01, -4.9D-01,  2.5D-01, r^2= 1.2D+00
   Bfn.  Coefficient  Atom+Function         Bfn.  Coefficient  Atom+Function  
  ----- ------------  ---------------      ----- ------------  ---------------
   250      0.367352  16 O  s               249      0.346915  16 O  s         
   224      0.240462  15 C  s         

 Vector   15  Occ=2.000000D+00  E=-1.389674D+00
              MO Center= -3.9D-01,  8.4D-01,  1.4D-01, r^2= 1.4D+01
   Bfn.  Coefficient  Atom+Function         Bfn.  Coefficient  Atom+Function  
  ----- ------------  ---------------      ----- ------------  ---------------
    79      0.281125   6 O  s                80      0.281601   6 O  s         
   377     -0.213393  23 O  s               376     -0.205627  23 O  s         
    54      0.200196   5 C  s         

 Vector   16  Occ=2.000000D+00  E=-1.388537D+00
              MO Center= -2.1D-01, -1.6D+00,  4.1D-02, r^2= 1.4D+01
   Bfn.  Coefficient  Atom+Function         Bfn.  Coefficient  Atom+Function  
  ----- ------------  ---------------      ----- ------------  ---------------
   377      0.296965  23 O  s               376      0.284278  23 O  s         
    79      0.202141   6 O  s                80      0.203074   6 O  s         
   351      0.198482  22 C  s         

 Vector   17  Occ=2.000000D+00  E=-1.272937D+00
              MO Center= -3.9D-01, -1.2D+00,  6.0D-01, r^2= 1.7D+00
   Bfn.  Coefficient  Atom+Function         Bfn.  Coefficient  Atom+Function  
  ----- ------------  ---------------      ----- ------------  ---------------
   275      0.377126  17 N  s               274      0.349458  17 N  s         
   250     -0.223298  16 O  s               249     -0.181351  16 O  s         
   227     -0.177099  15 C  px              298      0.160423  18 H  s         

 Vector   18  Occ=2.000000D+00  E=-1.252563D+00
              MO Center=  7.1D-02,  2.3D+00, -2.0D-02, r^2= 1.9D+00
   Bfn.  Coefficient  Atom+Function         Bfn.  Coefficient  Atom+Function  
  ----- ------------  ---------------      ----- ------------  ---------------
   105      0.431255   7 N  s               104      0.340881   7 N  s         
    80     -0.214078   6 O  s                79     -0.187517   6 O  s         
   128      0.152485   8 H  s               138      0.150051   9 C  s         

 Vector   19  Occ=2.000000D+00  E=-1.219427D+00
              MO Center=  6.4D-01, -3.3D+00, -6.5D-01, r^2= 1.5D+00
   Bfn.  Coefficient  Atom+Function         Bfn.  Coefficient  Atom+Function  
  ----- ------------  ---------------      ----- ------------  ---------------
   402      0.372764  24 N  s               401      0.368833  24 N  s         
   377     -0.216527  23 O  s               376     -0.178404  23 O  s         
   434      0.164587  26 H  s               425      0.156937  25 H  s         

 Vector   20  Occ=2.000000D+00  E=-1.077803D+00
              MO Center= -3.7D-01,  1.1D+00, -2.4D-01, r^2= 4.9D+00
   Bfn.  Coefficient  Atom+Function         Bfn.  Coefficient  Atom+Function  
  ----- ------------  ---------------      ----- ------------  ---------------
   138      0.239783   9 C  s               172      0.195613  11 C  s         
    12     -0.171440   2 C  s         

 Vector   21  Occ=2.000000D+00  E=-1.015736D+00
              MO Center=  5.3D-02, -5.4D-01,  5.7D-01, r^2= 1.1D+01
   Bfn.  Coefficient  Atom+Function         Bfn.  Coefficient  Atom+Function  
  ----- ------------  ---------------      ----- ------------  ---------------
   308      0.276891  19 C  s               139     -0.194332   9 C  s         
    56      0.193355   5 C  s                11     -0.179472   2 C  s         
   145      0.166334   9 C  py              278     -0.160988  17 N  py        
    12     -0.157272   2 C  s               309      0.157052  19 C  s         

 Vector   22  Occ=2.000000D+00  E=-9.948922D-01
              MO Center=  2.8D-01,  2.4D+00, -1.7D-01, r^2= 8.7D+00
   Bfn.  Coefficient  Atom+Function         Bfn.  Coefficient  Atom+Function  
  ----- ------------  ---------------      ----- ------------  ---------------
    56      0.319059   5 C  s                11     -0.278930   2 C  s         
   225     -0.217569  15 C  s                13     -0.209931   2 C  s         
   172     -0.192821  11 C  s               144      0.170111   9 C  px        
    73     -0.150148   5 C  dxy       

 Vector   23  Occ=2.000000D+00  E=-9.082476D-01
              MO Center= -5.3D-01,  7.0D-01, -5.3D-01, r^2= 5.4D+00
   Bfn.  Coefficient  Atom+Function         Bfn.  Coefficient  Atom+Function  
  ----- ------------  ---------------      ----- ------------  ---------------
   172      0.244421  11 C  s               144     -0.214212   9 C  px        
   146     -0.210645   9 C  pz              145      0.188163   9 C  py        
   309     -0.186398  19 C  s               225      0.182964  15 C  s         
   138     -0.173155   9 C  s               139     -0.166307   9 C  s         

 Vector   24  Occ=2.000000D+00  E=-8.419085D-01
              MO Center= -1.5D-01, -9.9D-01,  2.4D-01, r^2= 6.1D+00
   Bfn.  Coefficient  Atom+Function         Bfn.  Coefficient  Atom+Function  
  ----- ------------  ---------------      ----- ------------  ---------------
   309      0.276137  19 C  s               277      0.240301  17 N  px        
   225      0.215125  15 C  s               298     -0.210969  18 H  s         
   224      0.166357  15 C  s         

 Vector   25  Occ=2.000000D+00  E=-8.033285D-01
              MO Center=  2.5D-01, -5.0D-02, -1.4D-01, r^2= 9.1D+00
   Bfn.  Coefficient  Atom+Function         Bfn.  Coefficient  Atom+Function  
  ----- ------------  ---------------      ----- ------------  ---------------
   128      0.233876   8 H  s               107      0.199069   7 N  px        
   105      0.194654   7 N  s                55     -0.176046   5 C  s         
   108     -0.173636   7 N  py              406      0.159283  24 N  pz        
   144     -0.150447   9 C  px              351      0.150226  22 C  s         

 Vector   26  Occ=2.000000D+00  E=-7.991143D-01
              MO Center=  5.4D-02, -6.0D-01,  1.5D-02, r^2= 7.8D+00
   Bfn.  Coefficient  Atom+Function         Bfn.  Coefficient  Atom+Function  
  ----- ------------  ---------------      ----- ------------  ---------------
   225      0.301548  15 C  s               277      0.218874  17 N  px        
   139     -0.214369   9 C  s               298     -0.195265  18 H  s         
   128      0.185341   8 H  s               105      0.183086   7 N  s         
   226     -0.168523  15 C  s               107      0.158316   7 N  px        
   353      0.157177  22 C  s               174      0.156196  11 C  s         

 Vector   27  Occ=2.000000D+00  E=-7.554567D-01
              MO Center= -3.9D-02,  3.3D-01,  1.7D-01, r^2= 7.2D+00
   Bfn.  Coefficient  Atom+Function         Bfn.  Coefficient  Atom+Function  
  ----- ------------  ---------------      ----- ------------  ---------------
   142      0.236080   9 C  py              145      0.202075   9 C  py        
   228     -0.189287  15 C  py              107     -0.171781   7 N  px        
   277      0.171985  17 N  px        

 Vector   28  Occ=2.000000D+00  E=-7.452987D-01
              MO Center=  6.6D-01, -2.7D+00, -4.6D-01, r^2= 3.0D+00
   Bfn.  Coefficient  Atom+Function         Bfn.  Coefficient  Atom+Function  
  ----- ------------  ---------------      ----- ------------  ---------------
   405      0.354825  24 N  py              434      0.305331  26 H  s         
   425     -0.207882  25 H  s               435      0.195424  26 H  s         
   426     -0.170028  25 H  s               356      0.151454  22 C  pz        

 Vector   29  Occ=2.000000D+00  E=-6.963716D-01
              MO Center=  1.1D-01, -2.3D-01,  2.7D-01, r^2= 7.2D+00
   Bfn.  Coefficient  Atom+Function         Bfn.  Coefficient  Atom+Function  
  ----- ------------  ---------------      ----- ------------  ---------------
   252      0.237996  16 O  px              310      0.230810  19 C  s         
   278      0.218006  17 N  py              250      0.188067  16 O  s         
   227     -0.175833  15 C  px              315     -0.154393  19 C  py        

 Vector   30  Occ=2.000000D+00  E=-6.834136D-01
              MO Center=  1.5D-01, -6.4D-01,  1.5D-01, r^2= 1.2D+01
   Bfn.  Coefficient  Atom+Function         Bfn.  Coefficient  Atom+Function  
  ----- ------------  ---------------      ----- ------------  ---------------
   380     -0.170995  23 O  py              312      0.164981  19 C  py        
   406      0.154119  24 N  pz              107      0.151744   7 N  px        
   309     -0.150593  19 C  s         

 Vector   31  Occ=2.000000D+00  E=-6.682553D-01
              MO Center=  2.1D-02,  1.5D+00,  8.9D-02, r^2= 1.0D+01
   Bfn.  Coefficient  Atom+Function         Bfn.  Coefficient  Atom+Function  
  ----- ------------  ---------------      ----- ------------  ---------------
    82      0.258406   6 O  px               58      0.224262   5 C  py        
    80     -0.199218   6 O  s               226     -0.200089  15 C  s         
    56      0.188345   5 C  s                14     -0.171212   2 C  px        
   252      0.170271  16 O  px               13     -0.162088   2 C  s         
    17     -0.155289   2 C  px        

 Vector   32  Occ=2.000000D+00  E=-6.577984D-01
              MO Center= -2.5D-01, -8.2D-01,  2.7D-01, r^2= 8.0D+00
   Bfn.  Coefficient  Atom+Function         Bfn.  Coefficient  Atom+Function  
  ----- ------------  ---------------      ----- ------------  ---------------
   139      0.305998   9 C  s               310     -0.262610  19 C  s         
   226      0.215899  15 C  s               313     -0.198885  19 C  pz        
   278     -0.194771  17 N  py              332     -0.174333  20 H  s         
   141     -0.161661   9 C  px        

 Vector   33  Occ=2.000000D+00  E=-6.422951D-01
              MO Center= -1.5D-02,  1.5D+00, -1.9D-01, r^2= 7.3D+00
   Bfn.  Coefficient  Atom+Function         Bfn.  Coefficient  Atom+Function  
  ----- ------------  ---------------      ----- ------------  ---------------
   173     -0.330677  11 C  s               139      0.307989   9 C  s         
   109     -0.176815   7 N  pz               59     -0.171580   5 C  pz        
   143     -0.168205   9 C  pz              145     -0.165124   9 C  py        
    16     -0.158501   2 C  pz              225     -0.153780  15 C  s         

 Vector   34  Occ=2.000000D+00  E=-6.273092D-01
              MO Center=  2.4D-01,  1.6D+00, -1.0D-01, r^2= 7.3D+00
   Bfn.  Coefficient  Atom+Function         Bfn.  Coefficient  Atom+Function  
  ----- ------------  ---------------      ----- ------------  ---------------
   139      0.319053   9 C  s               173     -0.251647  11 C  s         
   252     -0.215403  16 O  px              197      0.188717  12 H  s         
   227      0.177154  15 C  px               16     -0.172683   2 C  pz        
   174     -0.170354  11 C  s                44     -0.165587   4 H  s         
    56      0.164878   5 C  s         

 Vector   35  Occ=2.000000D+00  E=-6.020878D-01
              MO Center=  2.3D-01,  7.5D-01,  2.9D-02, r^2= 1.2D+01
   Bfn.  Coefficient  Atom+Function         Bfn.  Coefficient  Atom+Function  
  ----- ------------  ---------------      ----- ------------  ---------------
    16      0.191439   2 C  pz                1     -0.172953   1 H  s         
   252     -0.167542  16 O  px               55     -0.159147   5 C  s         
   163      0.154181  10 H  s         

 Vector   36  Occ=2.000000D+00  E=-6.011089D-01
              MO Center= -1.5D-01, -2.3D+00,  4.3D-02, r^2= 8.7D+00
   Bfn.  Coefficient  Atom+Function         Bfn.  Coefficient  Atom+Function  
  ----- ------------  ---------------      ----- ------------  ---------------
   380      0.313852  23 O  py              355     -0.243182  22 C  py        
   377     -0.197649  23 O  s               352      0.183677  22 C  s         
   309     -0.182159  19 C  s               310     -0.177898  19 C  s         
   279      0.173423  17 N  pz              312      0.166544  19 C  py        
   383      0.161877  23 O  py        

 Vector   37  Occ=2.000000D+00  E=-5.965652D-01
              MO Center= -2.3D-01, -2.3D+00,  5.8D-01, r^2= 6.4D+00
   Bfn.  Coefficient  Atom+Function         Bfn.  Coefficient  Atom+Function  
  ----- ------------  ---------------      ----- ------------  ---------------
   341     -0.301020  21 H  s               311      0.284510  19 C  px        
   356      0.199471  22 C  pz              313     -0.176099  19 C  pz        
   342     -0.176182  21 H  s               359      0.176456  22 C  pz        

 Vector   38  Occ=2.000000D+00  E=-5.895007D-01
              MO Center= -3.3D-01,  5.2D-01, -3.2D-01, r^2= 1.1D+01
   Bfn.  Coefficient  Atom+Function         Bfn.  Coefficient  Atom+Function  
  ----- ------------  ---------------      ----- ------------  ---------------
    57      0.204135   5 C  px              214     -0.191446  14 H  s         
   215     -0.184474  14 H  s               355      0.166744  22 C  py        
   176      0.164145  11 C  py               82     -0.161483   6 O  px        
    15     -0.156424   2 C  py        

 Vector   39  Occ=2.000000D+00  E=-5.727823D-01
              MO Center=  1.7D-01,  3.4D+00, -1.3D-02, r^2= 5.2D+00
   Bfn.  Coefficient  Atom+Function         Bfn.  Coefficient  Atom+Function  
  ----- ------------  ---------------      ----- ------------  ---------------
    36     -0.257904   3 H  s                14      0.241302   2 C  px        
    44      0.219168   4 H  s                35     -0.213720   3 H  s         
    82      0.197282   6 O  px               57     -0.194204   5 C  px        
    83     -0.186831   6 O  py              176      0.167781  11 C  py        
    15     -0.166516   2 C  py              197      0.156632  12 H  s         

 Vector   40  Occ=2.000000D+00  E=-5.574620D-01
              MO Center= -3.9D-02,  2.0D+00, -5.7D-01, r^2= 8.0D+00
   Bfn.  Coefficient  Atom+Function         Bfn.  Coefficient  Atom+Function  
  ----- ------------  ---------------      ----- ------------  ---------------
   176      0.246563  11 C  py              197      0.244126  12 H  s         
   196      0.240809  12 H  s                35      0.217753   3 H  s         
    15      0.191758   2 C  py              163     -0.178396  10 H  s         
    36      0.166183   3 H  s               253      0.155749  16 O  py        
   139      0.153391   9 C  s               310      0.151763  19 C  s         

 Vector   41  Occ=2.000000D+00  E=-5.541040D-01
              MO Center=  9.1D-02,  9.2D-01, -2.2D-01, r^2= 9.2D+00
   Bfn.  Coefficient  Atom+Function         Bfn.  Coefficient  Atom+Function  
  ----- ------------  ---------------      ----- ------------  ---------------
   254      0.226591  16 O  pz              226      0.205901  15 C  s         
   196     -0.172093  12 H  s               257      0.171627  16 O  pz        
    16      0.159250   2 C  pz              143     -0.159805   9 C  pz        
   177      0.151454  11 C  pz        

 Vector   42  Occ=2.000000D+00  E=-5.456105D-01
              MO Center=  1.2D-01, -2.8D+00,  2.1D-01, r^2= 5.8D+00
   Bfn.  Coefficient  Atom+Function         Bfn.  Coefficient  Atom+Function  
  ----- ------------  ---------------      ----- ------------  ---------------
   342      0.266207  21 H  s               332     -0.228032  20 H  s         
   311     -0.226435  19 C  px              354      0.197026  22 C  px        
   139      0.187180   9 C  s               404      0.186719  24 N  px        
   381      0.181630  23 O  pz              379      0.166557  23 O  px        
   406      0.159257  24 N  pz              276      0.155362  17 N  s         

 Vector   43  Occ=2.000000D+00  E=-5.393705D-01
              MO Center= -5.1D-01,  1.3D+00, -6.7D-01, r^2= 5.5D+00
   Bfn.  Coefficient  Atom+Function         Bfn.  Coefficient  Atom+Function  
  ----- ------------  ---------------      ----- ------------  ---------------
   163      0.296163  10 H  s               206      0.261451  13 H  s         
   175      0.245258  11 C  px              205      0.241338  13 H  s         
   215     -0.227525  14 H  s               214     -0.223718  14 H  s         
   162      0.196587  10 H  s               141     -0.178563   9 C  px        
   107      0.177074   7 N  px              139     -0.158255   9 C  s         

 Vector   44  Occ=2.000000D+00  E=-5.097029D-01
              MO Center= -2.6D-01,  2.7D+00, -8.0D-02, r^2= 5.0D+00
   Bfn.  Coefficient  Atom+Function         Bfn.  Coefficient  Atom+Function  
  ----- ------------  ---------------      ----- ------------  ---------------
    84      0.319540   6 O  pz               87      0.233011   6 O  pz        
   143     -0.221194   9 C  pz               59      0.208682   5 C  pz        
   177      0.195299  11 C  pz               16     -0.178151   2 C  pz        
     2      0.161285   1 H  s                44     -0.158266   4 H  s         
     1      0.150959   1 H  s         

 Vector   45  Occ=2.000000D+00  E=-4.628516D-01
              MO Center=  3.8D-01, -9.8D-01,  1.4D-01, r^2= 5.1D+00
   Bfn.  Coefficient  Atom+Function         Bfn.  Coefficient  Atom+Function  
  ----- ------------  ---------------      ----- ------------  ---------------
   253      0.322775  16 O  py              254     -0.315049  16 O  pz        
   256      0.265832  16 O  py              257     -0.248540  16 O  pz        
   381      0.204866  23 O  pz              384      0.155379  23 O  pz        
   142      0.151580   9 C  py        

 Vector   46  Occ=2.000000D+00  E=-4.517996D-01
              MO Center=  2.2D-01, -1.5D+00,  1.8D-01, r^2= 5.3D+00
   Bfn.  Coefficient  Atom+Function         Bfn.  Coefficient  Atom+Function  
  ----- ------------  ---------------      ----- ------------  ---------------
   253      0.375057  16 O  py              256      0.308841  16 O  py        
   279     -0.289210  17 N  pz              282     -0.245431  17 N  pz        
   381     -0.220221  23 O  pz              379      0.190552  23 O  px        
   384     -0.169024  23 O  pz        

 Vector   47  Occ=2.000000D+00  E=-4.249141D-01
              MO Center= -5.3D-01,  3.6D+00,  2.9D-01, r^2= 2.4D+00
   Bfn.  Coefficient  Atom+Function         Bfn.  Coefficient  Atom+Function  
  ----- ------------  ---------------      ----- ------------  ---------------
    83      0.498309   6 O  py               13      0.481909   2 C  s         
    86      0.398886   6 O  py               56     -0.351888   5 C  s         
   105      0.234119   7 N  s                82      0.229778   6 O  px        
    64     -0.227847   5 C  py               17      0.216261   2 C  px        
   145     -0.208298   9 C  py               14      0.206241   2 C  px        

 Vector   48  Occ=2.000000D+00  E=-4.146960D-01
              MO Center= -9.6D-02, -2.2D+00,  9.3D-02, r^2= 8.7D+00
   Bfn.  Coefficient  Atom+Function         Bfn.  Coefficient  Atom+Function  
  ----- ------------  ---------------      ----- ------------  ---------------
   381      0.387736  23 O  pz              310      0.350494  19 C  s         
   384      0.298722  23 O  pz              353     -0.208138  22 C  s         
   279     -0.206165  17 N  pz              404     -0.201814  24 N  px        
   282     -0.189685  17 N  pz              276     -0.182893  17 N  s         
   109      0.179328   7 N  pz              112      0.166270   7 N  pz        

 Vector   49  Occ=2.000000D+00  E=-4.093040D-01
              MO Center=  2.8D-01, -3.2D+00, -3.7D-01, r^2= 4.9D+00
   Bfn.  Coefficient  Atom+Function         Bfn.  Coefficient  Atom+Function  
  ----- ------------  ---------------      ----- ------------  ---------------
   379      0.343109  23 O  px              404     -0.301184  24 N  px        
   382      0.265611  23 O  px              407     -0.257522  24 N  px        
   406     -0.239956  24 N  pz              409     -0.189924  24 N  pz        
   284      0.166713  17 N  py              380     -0.154147  23 O  py        

 Vector   50  Occ=2.000000D+00  E=-4.002983D-01
              MO Center= -2.3D-01,  1.3D+00,  5.9D-02, r^2= 7.8D+00
   Bfn.  Coefficient  Atom+Function         Bfn.  Coefficient  Atom+Function  
  ----- ------------  ---------------      ----- ------------  ---------------
   109      0.387799   7 N  pz              112      0.355580   7 N  pz        
    84     -0.299359   6 O  pz               87     -0.229961   6 O  pz        
   139     -0.172544   9 C  s         

 Vector   51  Occ=0.000000D+00  E= 2.691908D-02
              MO Center= -1.1D+00, -3.4D-01,  1.5D-01, r^2= 2.8D+01
   Bfn.  Coefficient  Atom+Function         Bfn.  Coefficient  Atom+Function  
  ----- ------------  ---------------      ----- ------------  ---------------
   174      3.513105  11 C  s                56      3.206457   5 C  s         
   234     -2.971637  15 C  py              226      2.409183  15 C  s         
   276     -2.375064  17 N  s               353      2.019675  22 C  s         
   173      1.976559  11 C  s               140      1.718273   9 C  s         
   106     -1.646785   7 N  s               343     -1.398900  21 H  s         

 Vector   52  Occ=0.000000D+00  E= 3.261978D-02
              MO Center=  2.5D-01,  1.1D+00, -4.2D-01, r^2= 3.3D+01
   Bfn.  Coefficient  Atom+Function         Bfn.  Coefficient  Atom+Function  
  ----- ------------  ---------------      ----- ------------  ---------------
   148      3.216472   9 C  py               64      3.035400   5 C  py        
   234      2.321335  15 C  py               63      2.181222   5 C  px        
   343      2.104319  21 H  s               106     -2.087096   7 N  s         
   310      2.085390  19 C  s               276      1.960587  17 N  s         
     3     -1.938673   1 H  s               164      1.735093  10 H  s         

 Vector   53  Occ=0.000000D+00  E= 3.790738D-02
              MO Center=  6.7D-01,  7.3D-01, -5.7D-01, r^2= 3.5D+01
   Bfn.  Coefficient  Atom+Function         Bfn.  Coefficient  Atom+Function  
  ----- ------------  ---------------      ----- ------------  ---------------
   149      4.403243   9 C  pz              174      3.271435  11 C  s         
   234     -3.096248  15 C  py               64      3.063258   5 C  py        
   148      2.519828   9 C  py              226     -2.513731  15 C  s         
    46     -2.134307   4 H  s               164     -2.092791  10 H  s         
    63      2.022511   5 C  px              216      1.957309  14 H  s         

 Vector   54  Occ=0.000000D+00  E= 4.199703D-02
              MO Center=  8.8D-01, -4.1D-01, -7.6D-01, r^2= 3.7D+01
   Bfn.  Coefficient  Atom+Function         Bfn.  Coefficient  Atom+Function  
  ----- ------------  ---------------      ----- ------------  ---------------
   226      3.862170  15 C  s               310     -2.550600  19 C  s         
    13      2.515546   2 C  s               353     -2.468827  22 C  s         
   233     -2.450307  15 C  px              149     -2.405360   9 C  pz        
   334      2.229580  20 H  s               198     -2.002909  12 H  s         
   234      1.900754  15 C  py              276     -1.696397  17 N  s         

 Vector   55  Occ=0.000000D+00  E= 5.394203D-02
              MO Center=  6.2D-01,  1.4D+00, -4.4D-02, r^2= 4.0D+01
   Bfn.  Coefficient  Atom+Function         Bfn.  Coefficient  Atom+Function  
  ----- ------------  ---------------      ----- ------------  ---------------
     3      3.504875   1 H  s               343      2.808558  21 H  s         
    46     -2.513784   4 H  s               216     -2.250446  14 H  s         
    37     -2.092896   3 H  s                22      1.762401   2 C  pz        
   207      1.621972  13 H  s               284     -1.554084  17 N  py        
   427     -1.528120  25 H  s               317      1.422708  19 C  px        

 Vector   56  Occ=0.000000D+00  E= 5.646886D-02
              MO Center=  2.8D-01,  1.2D+00, -2.5D-01, r^2= 4.4D+01
   Bfn.  Coefficient  Atom+Function         Bfn.  Coefficient  Atom+Function  
  ----- ------------  ---------------      ----- ------------  ---------------
   106      3.580755   7 N  s                64      3.383961   5 C  py        
    37     -3.109170   3 H  s               334      2.729945  20 H  s         
   343     -2.724750  21 H  s               234     -2.543893  15 C  py        
   226     -2.360784  15 C  s               198      2.150624  12 H  s         
   130      2.114260   8 H  s               317     -2.053342  19 C  px        

 Vector   57  Occ=0.000000D+00  E= 5.797227D-02
              MO Center=  4.5D-01,  9.2D-01,  7.2D-01, r^2= 3.8D+01
   Bfn.  Coefficient  Atom+Function         Bfn.  Coefficient  Atom+Function  
  ----- ------------  ---------------      ----- ------------  ---------------
   226      3.873081  15 C  s               276     -3.669316  17 N  s         
   334     -3.356413  20 H  s               148      3.303629   9 C  py        
    37     -3.145869   3 H  s               310      2.974247  19 C  s         
   198     -2.587966  12 H  s                56     -2.546973   5 C  s         
   234     -2.348444  15 C  py              130      2.153634   8 H  s         

 Vector   58  Occ=0.000000D+00  E= 6.189614D-02
              MO Center= -1.5D+00,  1.7D-01,  6.7D-01, r^2= 3.1D+01
   Bfn.  Coefficient  Atom+Function         Bfn.  Coefficient  Atom+Function  
  ----- ------------  ---------------      ----- ------------  ---------------
   164      5.283274  10 H  s               226     -4.890942  15 C  s         
   216     -4.803686  14 H  s               353      4.660434  22 C  s         
   343     -3.000769  21 H  s               147      2.609402   9 C  px        
    46     -2.502137   4 H  s               140     -2.494622   9 C  s         
   310     -2.155432  19 C  s               284      1.782307  17 N  py        

 Vector   59  Occ=0.000000D+00  E= 6.858853D-02
              MO Center=  8.0D-01,  5.3D-01, -1.3D+00, r^2= 3.3D+01
   Bfn.  Coefficient  Atom+Function         Bfn.  Coefficient  Atom+Function  
  ----- ------------  ---------------      ----- ------------  ---------------
   207      6.557871  13 H  s               353      6.538875  22 C  s         
   310     -5.429925  19 C  s                13      3.957576   2 C  s         
   234     -2.955863  15 C  py              216     -2.857968  14 H  s         
    46      2.735587   4 H  s               403     -2.691134  24 N  s         
     3     -2.535733   1 H  s               436     -2.453248  26 H  s         

 Vector   60  Occ=0.000000D+00  E= 7.625342D-02
              MO Center=  7.5D-01,  1.1D+00, -1.1D+00, r^2= 4.2D+01
   Bfn.  Coefficient  Atom+Function         Bfn.  Coefficient  Atom+Function  
  ----- ------------  ---------------      ----- ------------  ---------------
    13      4.640890   2 C  s                37      4.405775   3 H  s         
   198     -3.764805  12 H  s               436      3.665779  26 H  s         
    64     -3.407924   5 C  py              174     -2.986198  11 C  s         
   427     -2.925989  25 H  s               310      2.422449  19 C  s         
   353     -2.423111  22 C  s                46     -2.056230   4 H  s         

 Vector   61  Occ=0.000000D+00  E= 7.753717D-02
              MO Center= -2.0D-01,  3.3D-01, -5.6D-01, r^2= 3.8D+01
   Bfn.  Coefficient  Atom+Function         Bfn.  Coefficient  Atom+Function  
  ----- ------------  ---------------      ----- ------------  ---------------
   353      7.526617  22 C  s               198     -5.274024  12 H  s         
   310     -4.890393  19 C  s               343     -4.818782  21 H  s         
   436     -4.578135  26 H  s               174      3.983115  11 C  s         
   334      3.817086  20 H  s               207      3.647953  13 H  s         
     3      3.247865   1 H  s               130     -3.177336   8 H  s         

 Vector   62  Occ=0.000000D+00  E= 9.201434D-02
              MO Center= -1.0D+00,  5.5D-01,  5.4D-01, r^2= 3.6D+01
   Bfn.  Coefficient  Atom+Function         Bfn.  Coefficient  Atom+Function  
  ----- ------------  ---------------      ----- ------------  ---------------
    56     12.453690   5 C  s                13     -8.037637   2 C  s         
   300      6.949553  18 H  s               310     -6.502419  19 C  s         
   164     -6.299413  10 H  s               353      5.882499  22 C  s         
   216     -5.292510  14 H  s               343     -4.703078  21 H  s         
   198      4.303266  12 H  s               276      3.567654  17 N  s         

 Vector   63  Occ=0.000000D+00  E= 9.414522D-02
              MO Center=  2.6D-02,  1.2D+00,  1.4D-01, r^2= 3.4D+01
   Bfn.  Coefficient  Atom+Function         Bfn.  Coefficient  Atom+Function  
  ----- ------------  ---------------      ----- ------------  ---------------
   226     17.674187  15 C  s                13    -15.979683   2 C  s         
   174    -13.739222  11 C  s                56     12.379566   5 C  s         
   149     -7.305215   9 C  pz              164      7.244145  10 H  s         
   140      6.773686   9 C  s               233     -5.968150  15 C  px        
    64      5.655239   5 C  py              276     -4.772777  17 N  s         

 Vector   64  Occ=0.000000D+00  E= 9.970204D-02
              MO Center=  3.2D-02, -2.1D+00,  9.3D-01, r^2= 2.9D+01
   Bfn.  Coefficient  Atom+Function         Bfn.  Coefficient  Atom+Function  
  ----- ------------  ---------------      ----- ------------  ---------------
   353     23.130626  22 C  s               310    -14.990010  19 C  s         
    13     -7.763007   2 C  s                56      7.045168   5 C  s         
   226     -6.178984  15 C  s               174      6.087584  11 C  s         
   319      5.730335  19 C  pz              361      5.314232  22 C  py        
   403     -4.777247  24 N  s               149      4.410644   9 C  pz        

 Vector   65  Occ=0.000000D+00  E= 1.078250D-01
              MO Center=  1.7D+00,  1.0D+00, -3.2D-01, r^2= 3.0D+01
   Bfn.  Coefficient  Atom+Function         Bfn.  Coefficient  Atom+Function  
  ----- ------------  ---------------      ----- ------------  ---------------
    56     15.404639   5 C  s                13    -13.677023   2 C  s         
   310     -7.166799  19 C  s               130      6.483861   8 H  s         
   436     -6.480649  26 H  s               226      5.968964  15 C  s         
   234     -5.820347  15 C  py               63      5.557337   5 C  px        
    64      5.567741   5 C  py               20      4.999074   2 C  px        

 Vector   66  Occ=0.000000D+00  E= 1.211126D-01
              MO Center=  4.5D-01, -9.7D-02,  6.1D-01, r^2= 3.8D+01
   Bfn.  Coefficient  Atom+Function         Bfn.  Coefficient  Atom+Function  
  ----- ------------  ---------------      ----- ------------  ---------------
    56     27.021689   5 C  s                13    -22.270190   2 C  s         
   310     12.900124  19 C  s               353    -10.318908  22 C  s         
    63      9.179302   5 C  px              106     -9.113443   7 N  s         
   234     -7.013742  15 C  py              276     -6.697135  17 N  s         
    64      6.502193   5 C  py               20      6.007315   2 C  px        

 Vector   67  Occ=0.000000D+00  E= 1.234027D-01
              MO Center= -7.0D-01, -5.3D-01, -8.4D-01, r^2= 2.9D+01
   Bfn.  Coefficient  Atom+Function         Bfn.  Coefficient  Atom+Function  
  ----- ------------  ---------------      ----- ------------  ---------------
   148      7.797375   9 C  py              310      6.719504  19 C  s         
    56     -5.701032   5 C  s                64      5.243783   5 C  py        
   216     -4.327708  14 H  s                13     -4.098734   2 C  s         
   284      4.103579  17 N  py              234      4.048859  15 C  py        
   182     -3.931211  11 C  py              114      3.899729   7 N  py        

 Vector   68  Occ=0.000000D+00  E= 1.304916D-01
              MO Center= -3.5D-01, -8.5D-01, -1.0D+00, r^2= 2.5D+01
   Bfn.  Coefficient  Atom+Function         Bfn.  Coefficient  Atom+Function  
  ----- ------------  ---------------      ----- ------------  ---------------
   226    -12.322385  15 C  s               174     12.078240  11 C  s         
   310     -9.352575  19 C  s                13     -9.175143   2 C  s         
    56      8.601925   5 C  s               149      7.132227   9 C  pz        
   403      6.940203  24 N  s               276      6.824583  17 N  s         
   183      6.447665  11 C  pz              362      4.788094  22 C  pz        

 Vector   69  Occ=0.000000D+00  E= 1.345811D-01
              MO Center=  1.1D-01, -1.1D+00,  6.6D-01, r^2= 2.7D+01
   Bfn.  Coefficient  Atom+Function         Bfn.  Coefficient  Atom+Function  
  ----- ------------  ---------------      ----- ------------  ---------------
   310    -15.905947  19 C  s               226     15.194616  15 C  s         
   353     12.650680  22 C  s               234    -10.742108  15 C  py        
   403     -7.691491  24 N  s               174      6.927925  11 C  s         
   276     -6.117421  17 N  s               284     -5.932024  17 N  py        
    56      5.687251   5 C  s               140      5.561888   9 C  s         

 Vector   70  Occ=0.000000D+00  E= 1.362054D-01
              MO Center= -1.5D+00,  8.7D-02,  6.8D-01, r^2= 2.3D+01
   Bfn.  Coefficient  Atom+Function         Bfn.  Coefficient  Atom+Function  
  ----- ------------  ---------------      ----- ------------  ---------------
    13     14.003570   2 C  s               148    -14.070994   9 C  py        
    64    -12.819828   5 C  py               63     -6.395901   5 C  px        
   147     -5.914036   9 C  px              310     -5.535711  19 C  s         
   300     -4.850781  18 H  s                20     -4.684022   2 C  px        
   276     -4.127389  17 N  s               140     -3.378376   9 C  s         

 Vector   71  Occ=0.000000D+00  E= 1.403571D-01
              MO Center=  1.4D-01,  1.3D+00, -1.6D-01, r^2= 2.7D+01
   Bfn.  Coefficient  Atom+Function         Bfn.  Coefficient  Atom+Function  
  ----- ------------  ---------------      ----- ------------  ---------------
    56     15.770657   5 C  s               226    -11.456824  15 C  s         
   276      9.709256  17 N  s               174      9.375778  11 C  s         
   106     -8.455248   7 N  s                63      6.780611   5 C  px        
    13     -6.442142   2 C  s               233      5.150721  15 C  px        
   114     -4.180758   7 N  py              403     -4.132538  24 N  s         

 Vector   72  Occ=0.000000D+00  E= 1.455328D-01
              MO Center= -2.9D-01, -9.4D-01,  3.6D-01, r^2= 2.9D+01
   Bfn.  Coefficient  Atom+Function         Bfn.  Coefficient  Atom+Function  
  ----- ------------  ---------------      ----- ------------  ---------------
   233      6.513549  15 C  px              436     -5.079847  26 H  s         
   361      4.227967  22 C  py              226     -4.157666  15 C  s         
   234     -3.740984  15 C  py              106      3.580276   7 N  s         
   353      3.538480  22 C  s               174      3.466168  11 C  s         
   403     -3.379397  24 N  s                56      3.112981   5 C  s         

 Vector   73  Occ=0.000000D+00  E= 1.511899D-01
              MO Center=  8.1D-02,  1.3D+00,  4.5D-02, r^2= 2.9D+01
   Bfn.  Coefficient  Atom+Function         Bfn.  Coefficient  Atom+Function  
  ----- ------------  ---------------      ----- ------------  ---------------
   174     16.049852  11 C  s                64     12.034932   5 C  py        
    13    -10.014798   2 C  s               149      8.977848   9 C  pz        
   403      7.356136  24 N  s               226     -6.907269  15 C  s         
   353     -6.561548  22 C  s               148      6.141908   9 C  py        
   147      5.539606   9 C  px               20      4.629203   2 C  px        

 Vector   74  Occ=0.000000D+00  E= 1.529352D-01
              MO Center= -2.4D-01, -1.3D-01, -1.0D+00, r^2= 2.9D+01
   Bfn.  Coefficient  Atom+Function         Bfn.  Coefficient  Atom+Function  
  ----- ------------  ---------------      ----- ------------  ---------------
   226     21.425506  15 C  s               174    -17.790139  11 C  s         
   149    -13.081982   9 C  pz              276     -9.142159  17 N  s         
   233     -8.550040  15 C  px              106     -8.363566   7 N  s         
    56      8.292368   5 C  s               234      7.276888  15 C  py        
   183     -6.981285  11 C  pz              140      5.086853   9 C  s         

 Vector   75  Occ=0.000000D+00  E= 1.541765D-01
              MO Center= -3.9D-01, -4.7D-01,  2.2D-01, r^2= 2.7D+01
   Bfn.  Coefficient  Atom+Function         Bfn.  Coefficient  Atom+Function  
  ----- ------------  ---------------      ----- ------------  ---------------
   310     21.993196  19 C  s               234     15.095543  15 C  py        
    56    -10.559784   5 C  s               149     -8.420164   9 C  pz        
   318      7.079359  19 C  py              174     -6.256864  11 C  s         
   319     -4.668936  19 C  pz               13      4.421047   2 C  s         
   106     -4.308607   7 N  s               114      4.239094   7 N  py        

 Vector   76  Occ=0.000000D+00  E= 1.544143D-01
              MO Center= -1.0D-01,  1.2D+00,  2.3D-01, r^2= 3.0D+01
   Bfn.  Coefficient  Atom+Function         Bfn.  Coefficient  Atom+Function  
  ----- ------------  ---------------      ----- ------------  ---------------
   226      9.897207  15 C  s               310     -9.000839  19 C  s         
   300      5.346271  18 H  s               106     -4.953224   7 N  s         
   216     -4.635410  14 H  s               318     -3.713541  19 C  py        
   284     -3.464525  17 N  py              164     -3.400972  10 H  s         
   343     -3.129738  21 H  s               198      3.083922  12 H  s         

 Vector   77  Occ=0.000000D+00  E= 1.639125D-01
              MO Center=  4.7D-01,  4.6D-01,  1.3D-01, r^2= 3.1D+01
   Bfn.  Coefficient  Atom+Function         Bfn.  Coefficient  Atom+Function  
  ----- ------------  ---------------      ----- ------------  ---------------
   226     12.051042  15 C  s               234      9.580517  15 C  py        
   310     -9.533804  19 C  s                56     -7.766443   5 C  s         
   149     -7.384744   9 C  pz              174     -6.439167  11 C  s         
   353      5.867665  22 C  s               403      5.099983  24 N  s         
   362      4.934190  22 C  pz               13      4.545208   2 C  s         

 Vector   78  Occ=0.000000D+00  E= 1.688939D-01
              MO Center= -8.6D-01, -1.2D+00,  1.5D+00, r^2= 2.6D+01
   Bfn.  Coefficient  Atom+Function         Bfn.  Coefficient  Atom+Function  
  ----- ------------  ---------------      ----- ------------  ---------------
   310      9.963466  19 C  s               148      9.760473   9 C  py        
   284      7.338018  17 N  py              343     -5.192342  21 H  s         
    56     -5.009581   5 C  s               149     -5.022936   9 C  pz        
   164      4.461634  10 H  s               309      4.189150  19 C  s         
   403      4.135622  24 N  s               233      3.785732  15 C  px        

 Vector   79  Occ=0.000000D+00  E= 1.694738D-01
              MO Center=  1.9D-01, -6.3D-01,  5.8D-01, r^2= 2.9D+01
   Bfn.  Coefficient  Atom+Function         Bfn.  Coefficient  Atom+Function  
  ----- ------------  ---------------      ----- ------------  ---------------
   226     11.083685  15 C  s               310     -6.544788  19 C  s         
   317      6.343539  19 C  px              284     -5.859179  17 N  py        
   234      5.708220  15 C  py               13      4.565284   2 C  s         
   334     -4.358378  20 H  s               300      4.203409  18 H  s         
    56     -4.094843   5 C  s               251     -3.719258  16 O  s         

 Vector   80  Occ=0.000000D+00  E= 1.740947D-01
              MO Center= -1.4D-01,  1.7D+00, -3.0D-01, r^2= 3.1D+01
   Bfn.  Coefficient  Atom+Function         Bfn.  Coefficient  Atom+Function  
  ----- ------------  ---------------      ----- ------------  ---------------
   362      6.883156  22 C  pz              226     -6.052674  15 C  s         
    64     -5.317218   5 C  py              276     -5.340178  17 N  s         
   164      4.798595  10 H  s               353      4.761000  22 C  s         
   234     -4.439286  15 C  py              106     -4.385762   7 N  s         
   147      4.266015   9 C  px              318      4.131082  19 C  py        

 Vector   81  Occ=0.000000D+00  E= 1.774940D-01
              MO Center=  1.6D-01,  1.3D+00, -1.8D-01, r^2= 2.7D+01
   Bfn.  Coefficient  Atom+Function         Bfn.  Coefficient  Atom+Function  
  ----- ------------  ---------------      ----- ------------  ---------------
   234     11.932827  15 C  py               56     -9.464299   5 C  s         
   174     -7.336736  11 C  s               310      7.124076  19 C  s         
    13      6.346902   2 C  s               148      5.951975   9 C  py        
   182     -4.866214  11 C  py              318      4.587946  19 C  py        
   403      4.500395  24 N  s               216     -4.443905  14 H  s         

 Vector   82  Occ=0.000000D+00  E= 1.805424D-01
              MO Center= -6.9D-02,  1.6D-01, -8.5D-01, r^2= 2.4D+01
   Bfn.  Coefficient  Atom+Function         Bfn.  Coefficient  Atom+Function  
  ----- ------------  ---------------      ----- ------------  ---------------
   310    -11.849259  19 C  s               148     11.233740   9 C  py        
   234    -10.780217  15 C  py              182     -5.798041  11 C  py        
   216     -5.291560  14 H  s                63      5.184634   5 C  px        
   226      4.914601  15 C  s               235      4.911344  15 C  pz        
   198      4.704434  12 H  s               233     -3.270458  15 C  px        

 Vector   83  Occ=0.000000D+00  E= 1.829681D-01
              MO Center=  1.7D-01,  6.9D-01, -3.8D-01, r^2= 2.9D+01
   Bfn.  Coefficient  Atom+Function         Bfn.  Coefficient  Atom+Function  
  ----- ------------  ---------------      ----- ------------  ---------------
    63      5.716640   5 C  px              226     -5.161931  15 C  s         
   276      4.451886  17 N  s               174     -4.017638  11 C  s         
    64      3.880478   5 C  py              173     -3.884603  11 C  s         
   130     -3.705152   8 H  s                13     -3.577730   2 C  s         
   197      3.352147  12 H  s               215      3.231331  14 H  s         

 Vector   84  Occ=0.000000D+00  E= 1.870734D-01
              MO Center=  1.0D+00,  3.3D-01, -4.2D-01, r^2= 3.2D+01
   Bfn.  Coefficient  Atom+Function         Bfn.  Coefficient  Atom+Function  
  ----- ------------  ---------------      ----- ------------  ---------------
   310     10.050006  19 C  s               234      8.786302  15 C  py        
   174     -7.398255  11 C  s               149     -6.692765   9 C  pz        
   106     -5.930438   7 N  s               130     -5.485504   8 H  s         
   436      4.915434  26 H  s                37      4.807449   3 H  s         
    64     -4.638258   5 C  py               13      4.507354   2 C  s         

 Vector   85  Occ=0.000000D+00  E= 1.902232D-01
              MO Center= -3.0D-01, -3.2D-01, -1.3D+00, r^2= 2.5D+01
   Bfn.  Coefficient  Atom+Function         Bfn.  Coefficient  Atom+Function  
  ----- ------------  ---------------      ----- ------------  ---------------
   207      6.640574  13 H  s               276     -6.432981  17 N  s         
    56     -5.482847   5 C  s               310      5.245681  19 C  s         
   181     -5.043872  11 C  px              353      4.854642  22 C  s         
   198     -4.641827  12 H  s               147      4.607147   9 C  px        
   226     -3.972032  15 C  s                13      3.794482   2 C  s         

 Vector   86  Occ=0.000000D+00  E= 1.925323D-01
              MO Center=  5.0D-01,  4.9D-02,  5.5D-01, r^2= 2.4D+01
   Bfn.  Coefficient  Atom+Function         Bfn.  Coefficient  Atom+Function  
  ----- ------------  ---------------      ----- ------------  ---------------
    56     12.351667   5 C  s               235      9.639963  15 C  pz        
   226     -8.659624  15 C  s               276      8.628726  17 N  s         
   318     -7.544431  19 C  py              310     -7.376042  19 C  s         
   149     -5.694178   9 C  pz              174      5.382210  11 C  s         
   148     -5.064562   9 C  py              140     -4.574125   9 C  s         

 Vector   87  Occ=0.000000D+00  E= 1.988700D-01
              MO Center= -4.8D-02,  9.2D-01,  2.7D-01, r^2= 2.4D+01
   Bfn.  Coefficient  Atom+Function         Bfn.  Coefficient  Atom+Function  
  ----- ------------  ---------------      ----- ------------  ---------------
    13     11.629139   2 C  s                64    -10.090452   5 C  py        
   106     -7.710094   7 N  s                63     -6.003279   5 C  px        
   235     -5.403002  15 C  pz              276      5.245751  17 N  s         
   300      5.165845  18 H  s               181     -4.943864  11 C  px        
   207      4.874027  13 H  s               226      4.452413  15 C  s         

 Vector   88  Occ=0.000000D+00  E= 2.074613D-01
              MO Center= -7.2D-01,  1.0D+00,  8.4D-02, r^2= 2.5D+01
   Bfn.  Coefficient  Atom+Function         Bfn.  Coefficient  Atom+Function  
  ----- ------------  ---------------      ----- ------------  ---------------
    13     15.312119   2 C  s                64    -10.543215   5 C  py        
   353      7.257197  22 C  s               147     -6.847504   9 C  px        
   174     -6.518546  11 C  s                56     -6.220559   5 C  s         
    63     -6.193010   5 C  px              164     -5.444431  10 H  s         
   276      5.438986  17 N  s               148      5.123718   9 C  py        

 Vector   89  Occ=0.000000D+00  E= 2.115967D-01
              MO Center= -2.9D-01,  1.5D+00, -1.8D-01, r^2= 2.5D+01
   Bfn.  Coefficient  Atom+Function         Bfn.  Coefficient  Atom+Function  
  ----- ------------  ---------------      ----- ------------  ---------------
   174     32.196754  11 C  s               226    -29.643905  15 C  s         
    56     21.710542   5 C  s               149     19.102429   9 C  pz        
    13    -18.858966   2 C  s               234    -17.042633  15 C  py        
   147     13.554442   9 C  px               64      9.573726   5 C  py        
   276      8.839973  17 N  s               310     -8.314608  19 C  s         

 Vector   90  Occ=0.000000D+00  E= 2.205960D-01
              MO Center= -4.2D-01,  1.3D-01, -4.9D-01, r^2= 2.6D+01
   Bfn.  Coefficient  Atom+Function         Bfn.  Coefficient  Atom+Function  
  ----- ------------  ---------------      ----- ------------  ---------------
   174     31.941644  11 C  s               226    -28.690682  15 C  s         
   149     17.512801   9 C  pz              353     16.445198  22 C  s         
   234     -9.038259  15 C  py              310     -9.038538  19 C  s         
   233      7.609161  15 C  px              106      7.445329   7 N  s         
   173      6.931519  11 C  s                64      6.327481   5 C  py        

 Vector   91  Occ=0.000000D+00  E= 2.230092D-01
              MO Center=  9.7D-01,  7.7D-01, -2.0D-01, r^2= 2.5D+01
   Bfn.  Coefficient  Atom+Function         Bfn.  Coefficient  Atom+Function  
  ----- ------------  ---------------      ----- ------------  ---------------
   353    -18.936814  22 C  s               310     18.135841  19 C  s         
   226    -12.712336  15 C  s               234     -8.654142  15 C  py        
    56      8.094168   5 C  s               114     -7.307346   7 N  py        
   113     -6.627137   7 N  px               64     -5.350769   5 C  py        
    13      5.061171   2 C  s               284      4.627906  17 N  py        

 Vector   92  Occ=0.000000D+00  E= 2.270446D-01
              MO Center=  1.8D-01, -1.1D+00,  1.6D-01, r^2= 2.5D+01
   Bfn.  Coefficient  Atom+Function         Bfn.  Coefficient  Atom+Function  
  ----- ------------  ---------------      ----- ------------  ---------------
   353     41.881700  22 C  s               310    -37.074854  19 C  s         
    13     18.432746   2 C  s                64    -12.944733   5 C  py        
   148    -12.699634   9 C  py              403     -9.491493  24 N  s         
   140     -8.513700   9 C  s               319      8.087613  19 C  pz        
   174     -7.325893  11 C  s               234     -6.871634  15 C  py        

[...]
    64     -9.816316   5 C  py              226     -7.300959  15 C  s         
   234     -6.131269  15 C  py              140     -5.850975   9 C  s         
    12     -5.506205   2 C  s               284      5.512327  17 N  py        
   197     -4.528191  12 H  s               148      4.478104   9 C  py        

 Vector  125  Occ=0.000000D+00  E= 4.053356D-01
              MO Center=  9.0D-02, -1.3D+00, -2.7D-01, r^2= 1.6D+01
   Bfn.  Coefficient  Atom+Function         Bfn.  Coefficient  Atom+Function  
  ----- ------------  ---------------      ----- ------------  ---------------
   276     14.840186  17 N  s               226    -12.155423  15 C  s         
    13     10.608768   2 C  s               310     -9.039572  19 C  s         
   140     -8.517144   9 C  s               403     -8.375801  24 N  s         
    64     -8.139100   5 C  py              353      6.970047  22 C  s         
   309     -6.811713  19 C  s                63     -6.079509   5 C  px        

 Vector  126  Occ=0.000000D+00  E= 4.137032D-01
              MO Center= -3.1D-01,  1.7D-01, -1.2D-01, r^2= 1.8D+01
   Bfn.  Coefficient  Atom+Function         Bfn.  Coefficient  Atom+Function  
  ----- ------------  ---------------      ----- ------------  ---------------
   226     18.346520  15 C  s               310    -10.353861  19 C  s         
   148     10.116906   9 C  py              234     -9.110835  15 C  py        
    13      7.930059   2 C  s                56     -6.329777   5 C  s         
   106     -6.284013   7 N  s                55      5.085775   5 C  s         
   403      4.943536  24 N  s               235      4.527544  15 C  pz        

 Vector  127  Occ=0.000000D+00  E= 4.244714D-01
              MO Center=  1.7D-01,  9.7D-01, -2.6D-01, r^2= 2.2D+01
   Bfn.  Coefficient  Atom+Function         Bfn.  Coefficient  Atom+Function  
  ----- ------------  ---------------      ----- ------------  ---------------
   310     10.214660  19 C  s               174     -9.574266  11 C  s         
   148      8.782119   9 C  py              284      7.629193  17 N  py        
   163     -5.596652  10 H  s                56      5.263143   5 C  s         
   206      5.148923  13 H  s               173     -4.940035  11 C  s         
   215      4.846763  14 H  s               233      4.770885  15 C  px        

 Vector  128  Occ=0.000000D+00  E= 4.265407D-01
              MO Center= -1.6D-01,  5.2D-01, -5.3D-02, r^2= 1.8D+01
   Bfn.  Coefficient  Atom+Function         Bfn.  Coefficient  Atom+Function  
  ----- ------------  ---------------      ----- ------------  ---------------
   234      8.665943  15 C  py              276     -5.842165  17 N  s         
   106     -5.619235   7 N  s               403      5.340965  24 N  s         
     2     -4.908473   1 H  s               163     -4.410274  10 H  s         
   147     -4.264656   9 C  px              235     -3.916626  15 C  pz        
   139      3.462008   9 C  s               334      3.007088  20 H  s         

 Vector  129  Occ=0.000000D+00  E= 4.357632D-01
              MO Center=  4.1D-01,  2.2D+00,  1.3D-01, r^2= 1.8D+01
   Bfn.  Coefficient  Atom+Function         Bfn.  Coefficient  Atom+Function  
  ----- ------------  ---------------      ----- ------------  ---------------
   226     15.444893  15 C  s               148     14.342476   9 C  py        
   113      8.522679   7 N  px               13     -7.311165   2 C  s         
   353      6.159206  22 C  s                56     -6.040042   5 C  s         
   106     -5.858761   7 N  s               140      5.764897   9 C  s         
     2      4.681655   1 H  s                45      4.288327   4 H  s         

 Vector  130  Occ=0.000000D+00  E= 4.395922D-01
              MO Center=  6.9D-01,  2.1D+00,  4.6D-01, r^2= 2.2D+01
   Bfn.  Coefficient  Atom+Function         Bfn.  Coefficient  Atom+Function  
  ----- ------------  ---------------      ----- ------------  ---------------
   310      7.974405  19 C  s                45      5.766207   4 H  s         
   276      5.332891  17 N  s                13     -5.220840   2 C  s         
   226     -4.631356  15 C  s                36      4.272720   3 H  s         
    22     -4.021982   2 C  pz              106     -3.714027   7 N  s         
    12     -3.480107   2 C  s               173     -3.093497  11 C  s         

 Vector  131  Occ=0.000000D+00  E= 4.432324D-01
              MO Center=  4.6D-02, -3.8D-01,  2.5D-01, r^2= 1.8D+01
   Bfn.  Coefficient  Atom+Function         Bfn.  Coefficient  Atom+Function  
  ----- ------------  ---------------      ----- ------------  ---------------
   310     22.977247  19 C  s               226    -12.967143  15 C  s         
   353    -11.217521  22 C  s               234     10.727214  15 C  py        
   276      8.234240  17 N  s               106     -7.208467   7 N  s         
   342     -6.020092  21 H  s               333     -5.332068  20 H  s         
   174      5.299712  11 C  s                56     -4.447651   5 C  s         

 Vector  132  Occ=0.000000D+00  E= 4.446924D-01
              MO Center= -7.8D-02,  5.0D-01, -3.8D-01, r^2= 2.0D+01
   Bfn.  Coefficient  Atom+Function         Bfn.  Coefficient  Atom+Function  
  ----- ------------  ---------------      ----- ------------  ---------------
   114     12.204210   7 N  py              226     12.136183  15 C  s         
   353      8.550991  22 C  s               310     -7.803206  19 C  s         
    56     -7.039883   5 C  s               148     -5.579955   9 C  py        
   284     -5.572241  17 N  py              285      4.931892  17 N  pz        
   318     -4.523907  19 C  py              276     -4.330018  17 N  s         

 Vector  133  Occ=0.000000D+00  E= 4.522432D-01
              MO Center= -5.8D-01,  1.2D+00, -8.2D-03, r^2= 1.6D+01
   Bfn.  Coefficient  Atom+Function         Bfn.  Coefficient  Atom+Function  
  ----- ------------  ---------------      ----- ------------  ---------------
   226     40.844829  15 C  s                56    -29.528666   5 C  s         
   148     25.278103   9 C  py               13     13.166966   2 C  s         
   174    -12.357236  11 C  s               106    -10.692409   7 N  s         
   114     10.135363   7 N  py              149     -9.456687   9 C  pz        
   310     -8.203310  19 C  s               140      7.653115   9 C  s         

 Vector  134  Occ=0.000000D+00  E= 4.593774D-01
              MO Center= -6.9D-02, -1.5D-01, -4.4D-01, r^2= 2.0D+01
   Bfn.  Coefficient  Atom+Function         Bfn.  Coefficient  Atom+Function  
  ----- ------------  ---------------      ----- ------------  ---------------
   226     38.862742  15 C  s               174    -24.739246  11 C  s         
   276    -16.022239  17 N  s               353    -13.930334  22 C  s         
   149    -12.864081   9 C  pz              140     11.944975   9 C  s         
   233     -9.204998  15 C  px              148      8.734615   9 C  py        
    56     -7.571824   5 C  s               114      6.072091   7 N  py        

 Vector  135  Occ=0.000000D+00  E= 4.623303D-01
              MO Center= -7.2D-01,  6.2D-01, -6.8D-01, r^2= 1.9D+01
   Bfn.  Coefficient  Atom+Function         Bfn.  Coefficient  Atom+Function  
  ----- ------------  ---------------      ----- ------------  ---------------
   174     34.055192  11 C  s               173     15.886896  11 C  s         
   197    -12.149078  12 H  s               215    -12.141707  14 H  s         
   149     11.379041   9 C  pz              234    -11.044460  15 C  py        
    13    -10.953955   2 C  s               147     10.369410   9 C  px        
   206     -9.398847  13 H  s               226     -9.250952  15 C  s         

 Vector  136  Occ=0.000000D+00  E= 4.696685D-01
              MO Center= -2.3D-01, -9.0D-01, -5.6D-01, r^2= 1.7D+01
   Bfn.  Coefficient  Atom+Function         Bfn.  Coefficient  Atom+Function  
  ----- ------------  ---------------      ----- ------------  ---------------
   353     13.408756  22 C  s               310     -9.716205  19 C  s         
   206      7.601267  13 H  s               148      7.317057   9 C  py        
   226      7.203465  15 C  s               106     -5.633868   7 N  s         
    13     -5.429361   2 C  s               333      4.748855  20 H  s         
   378     -4.647825  23 O  s               174     -4.333855  11 C  s         

 Vector  137  Occ=0.000000D+00  E= 4.714911D-01
              MO Center= -6.0D-01, -5.6D-01, -3.8D-01, r^2= 1.6D+01
   Bfn.  Coefficient  Atom+Function         Bfn.  Coefficient  Atom+Function  
  ----- ------------  ---------------      ----- ------------  ---------------
   226     20.924140  15 C  s               310    -15.498303  19 C  s         
   284    -14.121873  17 N  py              148     -8.100594   9 C  py        
    56     -7.020490   5 C  s                13      6.788961   2 C  s         
   182      6.138012  11 C  py              139      5.547306   9 C  s         
   309     -5.506734  19 C  s               276     -4.898186  17 N  s         

 Vector  138  Occ=0.000000D+00  E= 4.722346D-01
              MO Center= -4.4D-02,  5.8D-01,  1.2D-01, r^2= 1.9D+01
   Bfn.  Coefficient  Atom+Function         Bfn.  Coefficient  Atom+Function  
  ----- ------------  ---------------      ----- ------------  ---------------
    56     26.139827   5 C  s                13    -21.223042   2 C  s         
   353    -12.326387  22 C  s               226     -8.900379  15 C  s         
    12     -8.684659   2 C  s               234     -8.066518  15 C  py        
   114     -7.661102   7 N  py              276     -7.122873  17 N  s         
    36      6.941065   3 H  s                 2      6.546649   1 H  s         

 Vector  139  Occ=0.000000D+00  E= 4.783728D-01
              MO Center= -4.1D-02,  6.9D-01, -4.9D-02, r^2= 2.0D+01
   Bfn.  Coefficient  Atom+Function         Bfn.  Coefficient  Atom+Function  
  ----- ------------  ---------------      ----- ------------  ---------------
    13     28.259084   2 C  s                64    -14.822419   5 C  py        
   353    -14.572725  22 C  s               310     12.926575  19 C  s         
   174    -12.016230  11 C  s               276    -11.332598  17 N  s         
    56    -10.683612   5 C  s                63     -9.708260   5 C  px        
     2     -8.684986   1 H  s               206      8.225103  13 H  s         

 Vector  140  Occ=0.000000D+00  E= 4.839861D-01
              MO Center=  3.0D-01,  4.4D-01,  1.9D-02, r^2= 1.9D+01
   Bfn.  Coefficient  Atom+Function         Bfn.  Coefficient  Atom+Function  
  ----- ------------  ---------------      ----- ------------  ---------------
    56     29.061151   5 C  s                13    -25.312803   2 C  s         
   310     19.254770  19 C  s               353    -13.933107  22 C  s         
    12    -12.532557   2 C  s               106    -10.307886   7 N  s         
   234      9.515461  15 C  py               45      9.067747   4 H  s         
    63      9.070695   5 C  px               64      7.692306   5 C  py        

 Vector  141  Occ=0.000000D+00  E= 4.900738D-01
              MO Center=  7.4D-01,  1.4D+00,  1.6D-01, r^2= 1.8D+01
   Bfn.  Coefficient  Atom+Function         Bfn.  Coefficient  Atom+Function  
  ----- ------------  ---------------      ----- ------------  ---------------
   226     33.959874  15 C  s                56    -26.468817   5 C  s         
   310    -19.078709  19 C  s                13     18.977735   2 C  s         
   174    -18.025423  11 C  s               353     13.180821  22 C  s         
   149     -8.665658   9 C  pz              234      7.047434  15 C  py        
   251     -7.011774  16 O  s                81      6.694025   6 O  s         

 Vector  142  Occ=0.000000D+00  E= 5.002000D-01
              MO Center=  3.4D-01,  6.9D-01, -1.3D-01, r^2= 1.7D+01
   Bfn.  Coefficient  Atom+Function         Bfn.  Coefficient  Atom+Function  
  ----- ------------  ---------------      ----- ------------  ---------------
    13     30.722721   2 C  s               226    -29.264843  15 C  s         
   148    -21.407131   9 C  py              106     16.410534   7 N  s         
    64    -14.112721   5 C  py              140    -11.818363   9 C  s         
   114    -10.894634   7 N  py              174     10.870555  11 C  s         
   276     10.215854  17 N  s               353      9.744022  22 C  s         


 center of mass
 --------------
 x =  -0.00538117 y =  -0.07205674 z =   0.02982423

 moments of inertia (a.u.)
 ------------------
        5846.361423357873          -0.000000000001           0.000000000000
          -0.000000000001         804.984360132328           0.000000000001
           0.000000000000           0.000000000001        6004.782668667885

  Mulliken analysis of the total density
  --------------------------------------

    Atom       Charge   Shell Charges
 -----------   ------   -------------------------------------------------------
    1 H    1     0.80   0.76  0.07  0.01  0.03 -0.07
    2 C    6     6.64   2.01  0.66  0.35  0.36  2.06  1.05 -0.04  0.06  0.13
    3 H    1     0.94   0.76  0.20  0.01  0.03 -0.06
    4 H    1     0.80   0.76  0.06  0.01  0.03 -0.07
    5 C    6     4.87   2.01  0.68  0.09 -0.25  1.90  0.31 -0.12  0.24  0.02
    6 O    8     8.71   2.01  0.82  0.99  0.15  2.79  1.82  0.15  0.01 -0.02
    7 N    7     7.57   2.01  0.72  0.84 -0.09  2.46  1.44  0.10  0.05  0.04
    8 H    1     1.01   0.75  0.23 -0.00  0.06 -0.03
    9 C    6     6.51   2.01  0.66  0.17  0.05  2.00  1.41 -0.08  0.14  0.16
   10 H    1     1.11   0.78  0.30  0.00  0.03 -0.00
   11 C    6     5.56   2.01  0.67  0.18  0.15  2.04  0.47 -0.02  0.07  0.00
   12 H    1     1.00   0.76  0.27 -0.00  0.03 -0.06
   13 H    1     0.87   0.77  0.14  0.00  0.03 -0.07
   14 H    1     0.89   0.78  0.15  0.01  0.03 -0.07
   15 C    6     4.64   2.01  0.68 -0.04  0.13  1.88  0.07 -0.06  0.23 -0.26
   16 O    8     8.88   2.01  0.82  1.03  0.18  2.79  1.88  0.16  0.01 -0.00
   17 N    7     7.31   2.01  0.72  0.79 -0.21  2.44  1.46 -0.00  0.05  0.05
   18 H    1     1.03   0.76  0.25 -0.01  0.05 -0.02
   19 C    6     6.38   2.01  0.66  0.32  0.25  2.01  1.01 -0.03  0.11  0.04
   20 H    1     0.83   0.77  0.04 -0.01  0.03 -0.01
   21 H    1     1.08   0.77  0.30  0.01  0.03 -0.04
   22 C    6     4.75   2.01  0.68  0.07  0.05  1.89 -0.11  0.01  0.24 -0.08
   23 O    8     8.70   2.01  0.82  1.01  0.14  2.79  1.80  0.12  0.01 -0.01
   24 N    7     7.15   2.01  0.72  0.77 -0.17  2.47  1.25  0.09  0.04 -0.03
   25 H    1     1.04   0.76  0.26 -0.00  0.05 -0.03
   26 H    1     0.90   0.73  0.19 -0.02  0.06 -0.07

       Multipole analysis of the density wrt the origin
       ------------------------------------------------

     L   x y z        total         open         nuclear
     -   - - -        -----         ----         -------
     0   0 0 0     -0.000000      0.000000    100.000000

     1   1 0 0      0.501529      0.000000     -0.000000
     1   0 1 0      0.666432      0.000000      0.000000
     1   0 0 1     -0.275138      0.000000      0.000000

     2   2 0 0    -57.262665      0.000000    286.368285
     2   1 1 0      6.637227      0.000000     24.033414
     2   1 0 1     -2.083763      0.000000      2.282655
     2   0 2 0    -83.169022      0.000000   2956.729640
     2   0 1 1     -2.389840      0.000000     -9.667039
     2   0 0 2    -53.833710      0.000000    202.495278


 Task  times  cpu:     1798.8s     wall:     1963.0s


                                NWChem Input Module
                                -------------------


 Summary of allocated global arrays
-----------------------------------
  No active global arrays


MA_summarize_allocated_blocks: starting scan ...
MA_summarize_allocated_blocks: scan completed: 0 heap blocks, 0 stack blocks
MA usage statistics:

	allocation statistics:
					      heap	     stack
					      ----	     -----
	current number of blocks	         0	         0
	maximum number of blocks	        16	        14
	current total bytes		         0	         0
	maximum total bytes		     92864	  22971480
	maximum total K-bytes		        93	     22972
	maximum total M-bytes		         1	        23


                                     CITATION
                                     --------
                Please cite the following reference when publishing
                           results obtained with NWChem:

          E. Apra, E. J. Bylaska, W. A. de Jong, N. Govind, K. Kowalski,
       T. P. Straatsma, M. Valiev, H. J. J. van Dam, Y. Alexeev, J. Anchell,
       V. Anisimov, F. W. Aquino, R. Atta-Fynn, J. Autschbach, N. P. Bauman,
     J. C. Becca, D. E. Bernholdt, K. Bhaskaran-Nair, S. Bogatko, P. Borowski,
         J. Boschen, J. Brabec, A. Bruner, E. Cauet, Y. Chen, G. N. Chuev,
      C. J. Cramer, J. Daily, M. J. O. Deegan, T. H. Dunning Jr., M. Dupuis,
   K. G. Dyall, G. I. Fann, S. A. Fischer, A. Fonari, H. Fruchtl, L. Gagliardi,
      J. Garza, N. Gawande, S. Ghosh, K. Glaesemann, A. W. Gotz, J. Hammond,
       V. Helms, E. D. Hermes, K. Hirao, S. Hirata, M. Jacquelin, L. Jensen,
   B. G. Johnson, H. Jonsson, R. A. Kendall, M. Klemm, R. Kobayashi, V. Konkov,
      S. Krishnamoorthy, M. Krishnan, Z. Lin, R. D. Lins, R. J. Littlefield,
      A. J. Logsdail, K. Lopata, W. Ma, A. V. Marenich, J. Martin del Campo,
   D. Mejia-Rodriguez, J. E. Moore, J. M. Mullin, T. Nakajima, D. R. Nascimento,
    J. A. Nichols, P. J. Nichols, J. Nieplocha, A. Otero-de-la-Roza, B. Palmer,
    A. Panyala, T. Pirojsirikul, B. Peng, R. Peverati, J. Pittner, L. Pollack,
   R. M. Richard, P. Sadayappan, G. C. Schatz, W. A. Shelton, D. W. Silverstein,
   D. M. A. Smith, T. A. Soares, D. Song, M. Swart, H. L. Taylor, G. S. Thomas,
            V. Tipparaju, D. G. Truhlar, K. Tsemekhman, T. Van Voorhis,
      A. Vazquez-Mayagoitia, P. Verma, O. Villa, A. Vishnu, K. D. Vogiatzis,
        D. Wang, J. H. Weare, M. J. Williamson, T. L. Windus, K. Wolinski,
        A. T. Wong, Q. Wu, C. Yang, Q. Yu, M. Zacharias, Z. Zhang, Y. Zhao,
                                and R. J. Harrison
                        "NWChem: Past, present, and future
                         J. Chem. Phys. 152, 184102 (2020)
                               doi:10.1063/5.0004997

                                      AUTHORS
                                      -------
  E. Apra, E. J. Bylaska, N. Govind, K. Kowalski, M. Valiev, D. Mejia-Rodriguez,
       A. Kunitsa, N. P. Bauman, A. Panyala, W. A. de Jong, T. P. Straatsma,
   H. J. J. van Dam, D. Wang, T. L. Windus, J. Hammond, J. Autschbach, A. Woods,
    K. Bhaskaran-Nair, J. Brabec, K. Lopata, S. A. Fischer, S. Krishnamoorthy,
     M. Jacquelin, W. Ma, M. Klemm, O. Villa, Y. Chen, V. Anisimov, F. Aquino,
     S. Hirata, M. T. Hackler, E. Hermes, L. Jensen, J. E. Moore, J. C. Becca,
      V. Konjkov, T. Risthaus, M. Malagoli, A. Marenich, A. Otero-de-la-Roza,
        J. Mullin, P. Nichols, R. Peverati, J. Pittner, Y. Zhao, P.-D. Fan,
        A. Fonari, M. J. Williamson, R. J. Harrison, J. R. Rehr, M. Dupuis,
     D. Silverstein, D. M. A. Smith, J. Nieplocha, V. Tipparaju, M. Krishnan,
     B. E. Van Kuiken, A. Vazquez-Mayagoitia, M. Swart, Q. Wu, T. Van Voorhis,
     A. A. Auer, M. Nooijen, L. D. Crosby, E. Brown, G. Cisneros, G. I. Fann,
   H. Fruchtl, J. Garza, K. Hirao, R. A. Kendall, J. A. Nichols, K. Tsemekhman,
    K. Wolinski, J. Anchell, D. E. Bernholdt, P. Borowski, T. Clark, D. Clerc,
   H. Dachsel, M. J. O. Deegan, K. Dyall, D. Elwood, E. Glendening, M. Gutowski,
   A. C. Hess, J. Jaffe, B. G. Johnson, J. Ju, R. Kobayashi, R. Kutteh, Z. Lin,
   R. Littlefield, X. Long, B. Meng, T. Nakajima, S. Niu, L. Pollack, M. Rosing,
   K. Glaesemann, G. Sandrone, M. Stave, H. Taylor, G. Thomas, J. H. van Lenthe,
                               A. T. Wong, Z. Zhang.

 Total times  cpu:     1798.9s     wall:     1963.7s
