export TMOUT=5400
export TMPDIR=/tmp
export PTMPDIR=/tmp/ptmp
 argument  1 = ALA_ALA_2.nw
                                         
                                         


             Northwest Computational Chemistry Package (NWChem) 7.2.0
             --------------------------------------------------------


                    Environmental Molecular Sciences Laboratory
                       Pacific Northwest National Laboratory
                                Richland, WA 99352

                              Copyright (c) 1994-2022
                       Pacific Northwest National Laboratory
                            Battelle Memorial Institute

             NWChem is an open-source computational chemistry package
                        distributed under the terms of the
                      Educational Community License (ECL) 2.0
             A copy of the license is included with this distribution
                              in the LICENSE.TXT file

                                  ACKNOWLEDGMENT
                                  --------------

            This software and its documentation were developed at the
            EMSL at Pacific Northwest National Laboratory, a multiprogram
            national laboratory, operated for the U.S. Department of Energy
            by Battelle under Contract Number DE-AC05-76RL01830. Support
            for this work was provided by the Department of Energy Office
            of Biological and Environmental Research, Office of Basic
            Energy Sciences, and the Office of Advanced Scientific Computing.


           Job information
           ---------------

    hostname        = nova18-21
    program         = /opt/rit/el9/20230413/app/linux-rhel9-x86_64_v3/gcc-11.2.1/nwchem-7.2.0-oxtctbuhfuzyfaoziquq6bki22grib3g/bin/nwchem
    date            = Tue Jun 24 14:24:44 2025

    compiled        = Wed_May_17_23:46:39_2023
    source          = /tmp/root/spack-stage/spack-stage-nwchem-7.2.0-oxtctbuhfuzyfaoziquq6bki22grib3g/spack-src
    nwchem branch   = 7.2.0
    nwchem revision = d0d141fd
    ga revision     = 5.8.0
    use scalapack   = T
    input           = ALA_ALA_2.nw
    prefix          = ALA_ALA_2.
    data base       = ./ALA_ALA_2.db
    status          = startup
    nproc           =        8
    time left       =     -1s



           Memory information
           ------------------

    heap     =   26214400 doubles =    200.0 Mbytes
    stack    =   26214397 doubles =    200.0 Mbytes
    global   =   52428800 doubles =    400.0 Mbytes (distinct from heap & stack)
    total    =  104857597 doubles =    800.0 Mbytes
    verify   = yes
    hardfail = no 


           Directory information
           ---------------------

  0 permanent = .
  0 scratch   = .




                                NWChem Input Module
                                -------------------



 Scaling coordinates for geometry "geometry" by  1.889725989
 (inverse scale =  0.529177249)

 C1  symmetry detected

          ------
          auto-z
          ------
  no constraints, skipping    0.0000000000000000     
  no constraints, skipping    0.0000000000000000     


                             Geometry "geometry" -> ""
                             -------------------------

 Output coordinates in angstroms (scale by  1.889725989 to convert to a.u.)

  No.       Tag          Charge          X              Y              Z
 ---- ---------------- ---------- -------------- -------------- --------------
    1 H                    1.0000    -0.84540995     4.37564227    -1.93487603
    2 C                    6.0000    -0.73707354     4.66709301    -0.89275431
    3 H                    1.0000    -1.71517132     4.73837900    -0.42081783
    4 H                    1.0000    -0.23204294     5.63025530    -0.83254211
    5 C                    6.0000     0.09348263     3.63479108    -0.16668876
    6 O                    8.0000     1.14859113     3.95598393     0.36327182
    7 N                    7.0000    -0.38272757     2.39157739    -0.15157109
    8 H                    1.0000    -1.24279834     2.19683694    -0.64129388
    9 C                    6.0000     0.28684747     1.25609184     0.48346580
   10 H                    1.0000     1.36665491     1.39908206     0.41167661
   11 C                    6.0000    -0.10106125     1.21526566     1.96869678
   12 H                    1.0000     0.18883293     2.15094374     2.45120264
   13 H                    1.0000    -1.17878352     1.07853196     2.07066059
   14 H                    1.0000     0.41294526     0.39314425     2.46722229
   15 C                    6.0000    -0.06541960    -0.06408443    -0.22539985
   16 O                    8.0000    -1.08702700    -0.15854380    -0.90586495
   17 N                    7.0000     0.76657633    -1.09428755    -0.04400165
   18 H                    1.0000     1.57425722    -0.95074884     0.54121816
   19 C                    6.0000     0.60686807    -2.42741310    -0.63732328
   20 H                    1.0000     0.29097634    -2.29688815    -1.67461671
   21 C                    6.0000     1.98424404    -3.10608124    -0.65551659
   22 H                    1.0000     2.33470575    -3.26942792     0.36544739
   23 H                    1.0000     1.91022784    -4.07111364    -1.15967934
   24 H                    1.0000     2.70204431    -2.48517739    -1.19257170
   25 C                    6.0000    -0.48980584    -3.28321958     0.04739535
   26 O                    8.0000    -0.25576317    -4.40793224     0.47367279
   27 N                    7.0000    -1.69656856    -2.75715475     0.20550774
   28 H                    1.0000    -1.88574762    -1.83222423    -0.15762421
   29 H                    1.0000    -2.40655209    -3.30890354     0.65716100

      Atomic Mass 
      ----------- 

      H                  1.007825
      C                 12.000000
      O                 15.994910
      N                 14.003070


 Effective nuclear repulsion energy (a.u.)     928.5593638493

            Nuclear Dipole moment (a.u.) 
            ----------------------------
        X                 Y               Z
 ---------------- ---------------- ----------------
     0.0000000000     0.0000000000     0.0000000000



                                Z-matrix (autoz)
                                -------- 

 Units are Angstrom for bonds and degrees for angles

      Type          Name      I     J     K     L     M      Value
      ----------- --------  ----- ----- ----- ----- ----- ----------
    1 Stretch                  1     2                       1.08752
    2 Stretch                  2     3                       1.08834
    3 Stretch                  2     4                       1.08920
    4 Stretch                  2     5                       1.51084
    5 Stretch                  5     6                       1.22363
    6 Stretch                  5     7                       1.33138
    7 Stretch                  7     8                       1.00870
    8 Stretch                  7     9                       1.46319
    9 Stretch                  9    10                       1.09160
   10 Stretch                  9    11                       1.53559
   11 Stretch                  9    15                       1.53930
   12 Stretch                 11    12                       1.09195
   13 Stretch                 11    13                       1.09114
   14 Stretch                 11    14                       1.09024
   15 Stretch                 15    16                       1.23111
   16 Stretch                 15    17                       1.33658
   17 Stretch                 17    18                       1.00769
   18 Stretch                 17    19                       1.46791
   19 Stretch                 19    20                       1.09215
   20 Stretch                 19    21                       1.53561
   21 Stretch                 19    25                       1.55046
   22 Stretch                 21    22                       1.09173
   23 Stretch                 21    23                       1.09130
   24 Stretch                 21    24                       1.09050
   25 Stretch                 25    26                       1.22534
   26 Stretch                 25    27                       1.32590
   27 Stretch                 27    28                       1.01151
   28 Stretch                 27    29                       1.00623
   29 Bend                     1     2     3               110.09361
   30 Bend                     1     2     4               109.64231
   31 Bend                     1     2     5               109.39997
   32 Bend                     2     5     6               120.18582
   33 Bend                     2     5     7               116.54129
   34 Bend                     3     2     4               109.56109
   35 Bend                     3     2     5               109.29372
   36 Bend                     4     2     5               108.82852
   37 Bend                     5     7     8               118.66843
   38 Bend                     5     7     9               124.46409
   39 Bend                     6     5     7               123.27163
   40 Bend                     7     9    10               108.81259
   41 Bend                     7     9    11               108.95391
   42 Bend                     7     9    15               111.15994
   43 Bend                     8     7     9               116.81260
   44 Bend                     9    11    12               109.72700
   45 Bend                     9    11    13               110.07318
   46 Bend                     9    11    14               110.07306
   47 Bend                     9    15    16               120.68012
   48 Bend                     9    15    17               117.13572
   49 Bend                    10     9    11               108.48003
   50 Bend                    10     9    15               107.96500
   51 Bend                    11     9    15               111.39503
   52 Bend                    12    11    13               109.16611
   53 Bend                    12    11    14               108.59889
   54 Bend                    13    11    14               109.17423
   55 Bend                    15    17    18               117.90185
   56 Bend                    15    17    19               125.26933
   57 Bend                    16    15    17               122.16956
   58 Bend                    17    19    20               107.86783
   59 Bend                    17    19    21               107.97330
   60 Bend                    17    19    25               113.56198
   61 Bend                    18    17    19               116.82761
   62 Bend                    19    21    22               110.05878
   63 Bend                    19    21    23               109.60024
   64 Bend                    19    21    24               110.15756
   65 Bend                    19    25    26               121.67980
   66 Bend                    19    25    27               118.51749
   67 Bend                    20    19    21               107.51768
   68 Bend                    20    19    25               106.30924
   69 Bend                    21    19    25               113.31116
   70 Bend                    22    21    23               108.75361
   71 Bend                    22    21    24               109.53922
   72 Bend                    23    21    24               108.70037
   73 Bend                    25    27    28               119.35441
   74 Bend                    25    27    29               118.56509
   75 Bend                    26    25    27               119.77069
   76 Bend                    28    27    29               122.04441
   77 Torsion                  1     2     5     6         119.72420
   78 Torsion                  1     2     5     7         -59.88134
   79 Torsion                  2     5     7     8           1.91659
   80 Torsion                  2     5     7     9         179.13123
   81 Torsion                  3     2     5     6        -119.66600
   82 Torsion                  3     2     5     7          60.72846
   83 Torsion                  4     2     5     6          -0.05170
   84 Torsion                  4     2     5     7        -179.65725
   85 Torsion                  5     7     9    10         -32.34220
   86 Torsion                  5     7     9    11          85.76072
   87 Torsion                  5     7     9    15        -151.11027
   88 Torsion                  6     5     7     8        -177.67559
   89 Torsion                  6     5     7     9          -0.46095
   90 Torsion                  7     9    11    12         -58.78811
   91 Torsion                  7     9    11    13          61.36858
   92 Torsion                  7     9    11    14        -178.24513
   93 Torsion                  7     9    15    16         -21.88047
   94 Torsion                  7     9    15    17         159.47996
   95 Torsion                  8     7     9    10         144.91953
   96 Torsion                  8     7     9    11         -96.97755
   97 Torsion                  8     7     9    15          26.15146
   98 Torsion                  9    15    17    18          -0.12508
   99 Torsion                  9    15    17    19        -179.71064
  100 Torsion                 10     9    11    12          59.52403
  101 Torsion                 10     9    11    13         179.68071
  102 Torsion                 10     9    11    14         -59.93300
  103 Torsion                 10     9    15    16        -141.15641
  104 Torsion                 10     9    15    17          40.20401
  105 Torsion                 11     9    15    16          99.83632
  106 Torsion                 11     9    15    17         -78.80325
  107 Torsion                 12    11     9    15         178.22355
  108 Torsion                 13    11     9    15         -61.61977
  109 Torsion                 14    11     9    15          58.76652
  110 Torsion                 15    17    19    20          41.91677
  111 Torsion                 15    17    19    21         157.83306
  112 Torsion                 15    17    19    25         -75.63017
  113 Torsion                 16    15    17    18        -178.74287
  114 Torsion                 16    15    17    19           1.67157
  115 Torsion                 17    19    21    22          64.62702
  116 Torsion                 17    19    21    23        -175.81321
  117 Torsion                 17    19    21    24         -56.25799
  118 Torsion                 17    19    25    26        -126.34290
  119 Torsion                 17    19    25    27          51.59361
  120 Torsion                 18    17    19    20        -137.67280
  121 Torsion                 18    17    19    21         -21.75651
  122 Torsion                 18    17    19    25         104.78026
  123 Torsion                 19    25    27    28           2.67716
  124 Torsion                 19    25    27    29        -179.46267
  125 Torsion                 20    19    21    22        -179.22799
  126 Torsion                 20    19    21    23         -59.66821
  127 Torsion                 20    19    21    24          59.88700
  128 Torsion                 20    19    25    26         115.20889
  129 Torsion                 20    19    25    27         -66.85460
  130 Torsion                 21    19    25    26          -2.66816
  131 Torsion                 21    19    25    27         175.26834
  132 Torsion                 22    21    19    25         -62.05610
  133 Torsion                 23    21    19    25          57.50367
  134 Torsion                 24    21    19    25         177.05889
  135 Torsion                 26    25    27    28        -179.34585
  136 Torsion                 26    25    27    29          -1.48568


            XYZ format geometry
            -------------------
    29
 geometry
 H                    -0.84540995     4.37564227    -1.93487603
 C                    -0.73707354     4.66709301    -0.89275431
 H                    -1.71517132     4.73837900    -0.42081783
 H                    -0.23204294     5.63025530    -0.83254211
 C                     0.09348263     3.63479108    -0.16668876
 O                     1.14859113     3.95598393     0.36327182
 N                    -0.38272757     2.39157739    -0.15157109
 H                    -1.24279834     2.19683694    -0.64129388
 C                     0.28684747     1.25609184     0.48346580
 H                     1.36665491     1.39908206     0.41167661
 C                    -0.10106125     1.21526566     1.96869678
 H                     0.18883293     2.15094374     2.45120264
 H                    -1.17878352     1.07853196     2.07066059
 H                     0.41294526     0.39314425     2.46722229
 C                    -0.06541960    -0.06408443    -0.22539985
 O                    -1.08702700    -0.15854380    -0.90586495
 N                     0.76657633    -1.09428755    -0.04400165
 H                     1.57425722    -0.95074884     0.54121816
 C                     0.60686807    -2.42741310    -0.63732328
 H                     0.29097634    -2.29688815    -1.67461671
 C                     1.98424404    -3.10608124    -0.65551659
 H                     2.33470575    -3.26942792     0.36544739
 H                     1.91022784    -4.07111364    -1.15967934
 H                     2.70204431    -2.48517739    -1.19257170
 C                    -0.48980584    -3.28321958     0.04739535
 O                    -0.25576317    -4.40793224     0.47367279
 N                    -1.69656856    -2.75715475     0.20550774
 H                    -1.88574762    -1.83222423    -0.15762421
 H                    -2.40655209    -3.30890354     0.65716100

 ==============================================================================
                                internuclear distances
 ------------------------------------------------------------------------------
       center one      |      center two      | atomic units |  angstroms
 ------------------------------------------------------------------------------
    2 C                |   1 H                |     2.05511  |     1.08752
    3 H                |   2 C                |     2.05666  |     1.08834
    4 H                |   2 C                |     2.05830  |     1.08920
    5 C                |   2 C                |     2.85508  |     1.51084
    6 O                |   5 C                |     2.31233  |     1.22363
    7 N                |   5 C                |     2.51595  |     1.33138
    8 H                |   7 N                |     1.90617  |     1.00870
    9 C                |   7 N                |     2.76503  |     1.46319
   10 H                |   9 C                |     2.06282  |     1.09160
   11 C                |   9 C                |     2.90185  |     1.53559
   12 H                |  11 C                |     2.06348  |     1.09195
   13 H                |  11 C                |     2.06195  |     1.09114
   14 H                |  11 C                |     2.06025  |     1.09024
   15 C                |   9 C                |     2.90886  |     1.53930
   16 O                |  15 C                |     2.32646  |     1.23111
   17 N                |  15 C                |     2.52577  |     1.33658
   18 H                |  17 N                |     1.90425  |     1.00769
   19 C                |  17 N                |     2.77395  |     1.46791
   20 H                |  19 C                |     2.06387  |     1.09215
   21 C                |  19 C                |     2.90187  |     1.53561
   22 H                |  21 C                |     2.06307  |     1.09173
   23 H                |  21 C                |     2.06227  |     1.09130
   24 H                |  21 C                |     2.06074  |     1.09050
   25 C                |  19 C                |     2.92995  |     1.55046
   26 O                |  25 C                |     2.31556  |     1.22534
   27 N                |  25 C                |     2.50559  |     1.32590
   28 H                |  27 N                |     1.91147  |     1.01151
   29 H                |  27 N                |     1.90149  |     1.00623
 ------------------------------------------------------------------------------
                         number of included internuclear distances:         28
 ==============================================================================



 ==============================================================================
                                 internuclear angles
 ------------------------------------------------------------------------------
        center 1       |       center 2       |       center 3       |  degrees
 ------------------------------------------------------------------------------
    1 H                |   2 C                |   3 H                |   110.09
    1 H                |   2 C                |   4 H                |   109.64
    1 H                |   2 C                |   5 C                |   109.40
    3 H                |   2 C                |   4 H                |   109.56
    3 H                |   2 C                |   5 C                |   109.29
    4 H                |   2 C                |   5 C                |   108.83
    2 C                |   5 C                |   6 O                |   120.19
    2 C                |   5 C                |   7 N                |   116.54
    6 O                |   5 C                |   7 N                |   123.27
    5 C                |   7 N                |   8 H                |   118.67
    5 C                |   7 N                |   9 C                |   124.46
    8 H                |   7 N                |   9 C                |   116.81
    7 N                |   9 C                |  10 H                |   108.81
    7 N                |   9 C                |  11 C                |   108.95
    7 N                |   9 C                |  15 C                |   111.16
   10 H                |   9 C                |  11 C                |   108.48
   10 H                |   9 C                |  15 C                |   107.97
   11 C                |   9 C                |  15 C                |   111.40
    9 C                |  11 C                |  12 H                |   109.73
    9 C                |  11 C                |  13 H                |   110.07
    9 C                |  11 C                |  14 H                |   110.07
   12 H                |  11 C                |  13 H                |   109.17
   12 H                |  11 C                |  14 H                |   108.60
   13 H                |  11 C                |  14 H                |   109.17
    9 C                |  15 C                |  16 O                |   120.68
    9 C                |  15 C                |  17 N                |   117.14
   16 O                |  15 C                |  17 N                |   122.17
   15 C                |  17 N                |  18 H                |   117.90
   15 C                |  17 N                |  19 C                |   125.27
   18 H                |  17 N                |  19 C                |   116.83
   17 N                |  19 C                |  20 H                |   107.87
   17 N                |  19 C                |  21 C                |   107.97
   17 N                |  19 C                |  25 C                |   113.56
   20 H                |  19 C                |  21 C                |   107.52
   20 H                |  19 C                |  25 C                |   106.31
   21 C                |  19 C                |  25 C                |   113.31
   19 C                |  21 C                |  22 H                |   110.06
   19 C                |  21 C                |  23 H                |   109.60
   19 C                |  21 C                |  24 H                |   110.16
   22 H                |  21 C                |  23 H                |   108.75
   22 H                |  21 C                |  24 H                |   109.54
   23 H                |  21 C                |  24 H                |   108.70
   19 C                |  25 C                |  26 O                |   121.68
   19 C                |  25 C                |  27 N                |   118.52
   26 O                |  25 C                |  27 N                |   119.77
   25 C                |  27 N                |  28 H                |   119.35
   25 C                |  27 N                |  29 H                |   118.57
   28 H                |  27 N                |  29 H                |   122.04
 ------------------------------------------------------------------------------
                            number of included internuclear angles:         48
 ==============================================================================



  library name resolved from: environment
  library file name is: </opt/rit/el9/20230413/app/linux-rhel9-x86_64_v3/gcc-11.2.1/nwchem-7.2.0-oxtctbuhfuzyfaoziquq6bki22grib3g/share/nwchem/libraries/>
  


 Summary of "ao basis" -> "" (cartesian)
 ------------------------------------------------------------------------------
       Tag                 Description            Shells   Functions and Types
 ---------------- ------------------------------  ------  ---------------------
 *                        aug-cc-pvdz                 on all atoms 


                      Basis "ao basis" -> "ao basis" (cartesian)
                      -----
  H (Hydrogen)
  ------------
            Exponent  Coefficients 
       -------------- ---------------------------------------------------------
  1 S  1.30100000E+01  0.019685
  1 S  1.96200000E+00  0.137977
  1 S  4.44600000E-01  0.478148

  2 S  1.22000000E-01  1.000000

  3 S  2.97400000E-02  1.000000

  4 P  7.27000000E-01  1.000000

  5 P  1.41000000E-01  1.000000

  C (Carbon)
  ----------
            Exponent  Coefficients 
       -------------- ---------------------------------------------------------
  1 S  6.66500000E+03  0.000692
  1 S  1.00000000E+03  0.005329
  1 S  2.28000000E+02  0.027077
  1 S  6.47100000E+01  0.101718
  1 S  2.10600000E+01  0.274740
  1 S  7.49500000E+00  0.448564
  1 S  2.79700000E+00  0.285074
  1 S  5.21500000E-01  0.015204

  2 S  6.66500000E+03 -0.000146
  2 S  1.00000000E+03 -0.001154
  2 S  2.28000000E+02 -0.005725
  2 S  6.47100000E+01 -0.023312
  2 S  2.10600000E+01 -0.063955
  2 S  7.49500000E+00 -0.149981
  2 S  2.79700000E+00 -0.127262
  2 S  5.21500000E-01  0.544529

  3 S  1.59600000E-01  1.000000

  4 S  4.69000000E-02  1.000000

  5 P  9.43900000E+00  0.038109
  5 P  2.00200000E+00  0.209480
  5 P  5.45600000E-01  0.508557

  6 P  1.51700000E-01  1.000000

  7 P  4.04100000E-02  1.000000

  8 D  5.50000000E-01  1.000000

  9 D  1.51000000E-01  1.000000

  O (Oxygen)
  ----------
            Exponent  Coefficients 
       -------------- ---------------------------------------------------------
  1 S  1.17200000E+04  0.000710
  1 S  1.75900000E+03  0.005470
  1 S  4.00800000E+02  0.027837
  1 S  1.13700000E+02  0.104800
  1 S  3.70300000E+01  0.283062
  1 S  1.32700000E+01  0.448719
  1 S  5.02500000E+00  0.270952
  1 S  1.01300000E+00  0.015458

  2 S  1.17200000E+04 -0.000160
  2 S  1.75900000E+03 -0.001263
  2 S  4.00800000E+02 -0.006267
  2 S  1.13700000E+02 -0.025716
  2 S  3.70300000E+01 -0.070924
  2 S  1.32700000E+01 -0.165411
  2 S  5.02500000E+00 -0.116955
  2 S  1.01300000E+00  0.557368

  3 S  3.02300000E-01  1.000000

  4 S  7.89600000E-02  1.000000

  5 P  1.77000000E+01  0.043018
  5 P  3.85400000E+00  0.228913
  5 P  1.04600000E+00  0.508728

  6 P  2.75300000E-01  1.000000

  7 P  6.85600000E-02  1.000000

  8 D  1.18500000E+00  1.000000

  9 D  3.32000000E-01  1.000000

  N (Nitrogen)
  ------------
            Exponent  Coefficients 
       -------------- ---------------------------------------------------------
  1 S  9.04600000E+03  0.000700
  1 S  1.35700000E+03  0.005389
  1 S  3.09300000E+02  0.027406
  1 S  8.77300000E+01  0.103207
  1 S  2.85600000E+01  0.278723
  1 S  1.02100000E+01  0.448540
  1 S  3.83800000E+00  0.278238
  1 S  7.46600000E-01  0.015440

  2 S  9.04600000E+03 -0.000153
  2 S  1.35700000E+03 -0.001208
  2 S  3.09300000E+02 -0.005992
  2 S  8.77300000E+01 -0.024544
  2 S  2.85600000E+01 -0.067459
  2 S  1.02100000E+01 -0.158078
  2 S  3.83800000E+00 -0.121831
  2 S  7.46600000E-01  0.549003

  3 S  2.24800000E-01  1.000000

  4 S  6.12400000E-02  1.000000

  5 P  1.35500000E+01  0.039919
  5 P  2.91700000E+00  0.217169
  5 P  7.97300000E-01  0.510319

  6 P  2.18500000E-01  1.000000

  7 P  5.61100000E-02  1.000000

  8 D  8.17000000E-01  1.000000

  9 D  2.30000000E-01  1.000000



 Summary of "ao basis" -> "ao basis" (cartesian)
 ------------------------------------------------------------------------------
       Tag                 Description            Shells   Functions and Types
 ---------------- ------------------------------  ------  ---------------------
 H                        aug-cc-pvdz                5        9   3s2p
 C                        aug-cc-pvdz                9       25   4s3p2d
 O                        aug-cc-pvdz                9       25   4s3p2d
 N                        aug-cc-pvdz                9       25   4s3p2d


                                 NWChem SCF Module
                                 -----------------



  ao basis        = "ao basis"
  functions       =   485
  atoms           =    29
  closed shells   =    54
  open shells     =     0
  charge          =   0.00
  wavefunction    = RHF 
  input vectors   = atomic
  output vectors  = ./ALA_ALA_2.movecs
  use symmetry    = F
  symmetry adapt  = F


 Summary of "ao basis" -> "ao basis" (cartesian)
 ------------------------------------------------------------------------------
       Tag                 Description            Shells   Functions and Types
 ---------------- ------------------------------  ------  ---------------------
 H                        aug-cc-pvdz                5        9   3s2p
 C                        aug-cc-pvdz                9       25   4s3p2d
 O                        aug-cc-pvdz                9       25   4s3p2d
 N                        aug-cc-pvdz                9       25   4s3p2d



 Forming initial guess at       0.7s


 !! The overlap matrix has   3 vectors deemed linearly dependent with
    eigenvalues:
 3.50D-06 7.01D-06 8.75D-06


      Superposition of Atomic Density Guess
      -------------------------------------

 Sum of atomic energies:        -696.03477360

      Non-variational initial energy
      ------------------------------

 Total energy =    -704.994416
 1-e energy   =   -2789.095254
 2-e energy   =    1155.541474
 HOMO         =      -0.306191
 LUMO         =       0.010418


 Starting SCF solution at     120.9s



 ----------------------------------------------
         Quadratically convergent ROHF

 Convergence threshold     :          1.000E-04
 Maximum no. of iterations :           30
 Final Fock-matrix accuracy:          1.000E-10
 ----------------------------------------------


              iter       energy          gnorm     gmax       time
             ----- ------------------- --------- --------- --------
                 1     -699.4379188340  2.35D+00  1.62D-01    227.3
                 2     -699.7303168302  7.70D-01  4.80D-02    492.9
                 3     -699.7825715192  6.13D-02  4.73D-03    848.5
                 4     -699.7831614854  3.73D-03  3.99D-04   1322.2
                 5     -699.7831641739  7.79D-06  6.33D-07   2134.8


       Final RHF  results 
       ------------------ 

         Total SCF energy =   -699.783164173855
      One-electron energy =  -2798.779815226497
      Two-electron energy =   1170.437287203305
 Nuclear repulsion energy =    928.559363849337

        Time for solution =   2017.1s


             Final eigenvalues
             -----------------

              1      
    1  -20.5603
    2  -20.5258
    3  -20.5255
    4  -15.6291
    5  -15.6024
    6  -15.5870
    7  -11.3894
    8  -11.3596
    9  -11.3578
   10  -11.3123
   11  -11.3122
   12  -11.2491
   13  -11.2473
   14  -11.2447
   15   -1.4211
   16   -1.3880
   17   -1.3864
   18   -1.2731
   19   -1.2511
   20   -1.2162
   21   -1.0834
   22   -1.0468
   23   -0.9965
   24   -0.9234
   25   -0.8992
   26   -0.8363
   27   -0.7989
   28   -0.7956
   29   -0.7466
   30   -0.7382
   31   -0.6970
   32   -0.6854
   33   -0.6674
   34   -0.6612
   35   -0.6412
   36   -0.6252
   37   -0.6084
   38   -0.6029
   39   -0.5908
   40   -0.5718
   41   -0.5666
   42   -0.5629
   43   -0.5559
   44   -0.5490
   45   -0.5472
   46   -0.5378
   47   -0.5220
   48   -0.5082
   49   -0.4599
   50   -0.4488
   51   -0.4236
   52   -0.4102
   53   -0.4076
   54   -0.3984
   55    0.0284
   56    0.0336
   57    0.0376
   58    0.0418
   59    0.0522
   60    0.0558
   61    0.0567
   62    0.0589
   63    0.0658
   64    0.0747

                       ROHF Final Molecular Orbital Analysis
                       -------------------------------------

 Vector   15  Occ=2.000000D+00  E=-1.421104D+00
              MO Center= -5.8D-01, -2.3D-01, -5.9D-01, r^2= 1.3D+00
   Bfn.  Coefficient  Atom+Function         Bfn.  Coefficient  Atom+Function  
  ----- ------------  ---------------      ----- ------------  ---------------
   250      0.366653  16 O  s               249      0.345661  16 O  s         
   224      0.240338  15 C  s         

 Vector   16  Occ=2.000000D+00  E=-1.387995D+00
              MO Center=  4.9D-01,  2.5D+00,  1.7D-01, r^2= 8.4D+00
   Bfn.  Coefficient  Atom+Function         Bfn.  Coefficient  Atom+Function  
  ----- ------------  ---------------      ----- ------------  ---------------
    79      0.319688   6 O  s                80      0.320303   6 O  s         
    54      0.227419   5 C  s         

 Vector   17  Occ=2.000000D+00  E=-1.386379D+00
              MO Center= -3.0D-01, -2.7D+00,  2.7D-01, r^2= 8.2D+00
   Bfn.  Coefficient  Atom+Function         Bfn.  Coefficient  Atom+Function  
  ----- ------------  ---------------      ----- ------------  ---------------
   420      0.344928  26 O  s               419      0.323564  26 O  s         
   394      0.224957  25 C  s         

 Vector   18  Occ=2.000000D+00  E=-1.273101D+00
              MO Center=  4.5D-01, -1.1D+00, -1.9D-01, r^2= 1.7D+00
   Bfn.  Coefficient  Atom+Function         Bfn.  Coefficient  Atom+Function  
  ----- ------------  ---------------      ----- ------------  ---------------
   275      0.409700  17 N  s               274      0.346171  17 N  s         
   250     -0.222900  16 O  s               249     -0.180352  16 O  s         
   227      0.159771  15 C  px              298      0.159229  18 H  s         

 Vector   19  Occ=2.000000D+00  E=-1.251117D+00
              MO Center= -8.5D-02,  2.5D+00, -1.5D-02, r^2= 1.8D+00
   Bfn.  Coefficient  Atom+Function         Bfn.  Coefficient  Atom+Function  
  ----- ------------  ---------------      ----- ------------  ---------------
   105      0.437608   7 N  s               104      0.341160   7 N  s         
    80     -0.214639   6 O  s                79     -0.187580   6 O  s         
   128      0.152511   8 H  s               138      0.150316   9 C  s         

 Vector   20  Occ=2.000000D+00  E=-1.216240D+00
              MO Center= -1.3D+00, -2.9D+00,  1.9D-01, r^2= 1.5D+00
   Bfn.  Coefficient  Atom+Function         Bfn.  Coefficient  Atom+Function  
  ----- ------------  ---------------      ----- ------------  ---------------
   445      0.386065  27 N  s               444      0.369118  27 N  s         
   420     -0.218869  26 O  s               419     -0.179395  26 O  s         
   468      0.164784  28 H  s               477      0.157198  29 H  s         
   398      0.153463  25 C  py              397     -0.150845  25 C  px        

 Vector   21  Occ=2.000000D+00  E=-1.083406D+00
              MO Center=  3.2D-01,  1.8D-01,  1.5D-01, r^2= 7.1D+00
   Bfn.  Coefficient  Atom+Function         Bfn.  Coefficient  Atom+Function  
  ----- ------------  ---------------      ----- ------------  ---------------
   138      0.204870   9 C  s               308     -0.178260  19 C  s         
   172      0.157843  11 C  s         

 Vector   22  Occ=2.000000D+00  E=-1.046781D+00
              MO Center=  5.9D-01, -5.4D-01, -1.2D-01, r^2= 9.5D+00
   Bfn.  Coefficient  Atom+Function         Bfn.  Coefficient  Atom+Function  
  ----- ------------  ---------------      ----- ------------  ---------------
   342      0.204223  21 C  s               308      0.196243  19 C  s         
   225      0.159705  15 C  s         

 Vector   23  Occ=2.000000D+00  E=-9.964956D-01
              MO Center= -4.5D-01,  3.6D+00, -2.5D-01, r^2= 5.2D+00
   Bfn.  Coefficient  Atom+Function         Bfn.  Coefficient  Atom+Function  
  ----- ------------  ---------------      ----- ------------  ---------------
    11      0.317855   2 C  s                56     -0.283696   5 C  s         
    13      0.204192   2 C  s               146      0.189073   9 C  pz        
   172      0.163698  11 C  s         

 Vector   24  Occ=2.000000D+00  E=-9.233592D-01
              MO Center=  7.0D-01, -1.0D+00,  2.0D-01, r^2= 8.0D+00
   Bfn.  Coefficient  Atom+Function         Bfn.  Coefficient  Atom+Function  
  ----- ------------  ---------------      ----- ------------  ---------------
   146      0.245979   9 C  pz              225      0.239546  15 C  s         
   342     -0.232109  21 C  s               314     -0.206089  19 C  px        
   145      0.203527   9 C  py              172      0.191444  11 C  s         
   309      0.150701  19 C  s         

 Vector   25  Occ=2.000000D+00  E=-8.991823D-01
              MO Center=  1.9D-01, -6.9D-01,  2.4D-01, r^2= 8.6D+00
   Bfn.  Coefficient  Atom+Function         Bfn.  Coefficient  Atom+Function  
  ----- ------------  ---------------      ----- ------------  ---------------
   309      0.310991  19 C  s               146     -0.211406   9 C  pz        
   172     -0.171152  11 C  s               139      0.168924   9 C  s         
   314     -0.166061  19 C  px        

 Vector   26  Occ=2.000000D+00  E=-8.362559D-01
              MO Center=  2.8D-01, -2.1D-01, -1.2D-01, r^2= 6.3D+00
   Bfn.  Coefficient  Atom+Function         Bfn.  Coefficient  Atom+Function  
  ----- ------------  ---------------      ----- ------------  ---------------
   309      0.239668  19 C  s               277     -0.234826  17 N  px        
   225      0.232732  15 C  s               298     -0.206707  18 H  s         
   278      0.194814  17 N  py              224      0.185033  15 C  s         
   108      0.178382   7 N  py              275     -0.177221  17 N  s         

 Vector   27  Occ=2.000000D+00  E=-7.989298D-01
              MO Center= -1.3D-01,  2.1D+00,  8.0D-03, r^2= 3.2D+00
   Bfn.  Coefficient  Atom+Function         Bfn.  Coefficient  Atom+Function  
  ----- ------------  ---------------      ----- ------------  ---------------
   128      0.300734   8 H  s               139     -0.285305   9 C  s         
   107     -0.271278   7 N  px              225      0.261693  15 C  s         
   105      0.258822   7 N  s                55     -0.220882   5 C  s         
   146      0.210037   9 C  pz              108     -0.183786   7 N  py        
   163     -0.177213  10 H  s               162     -0.169185  10 H  s         

 Vector   28  Occ=2.000000D+00  E=-7.955652D-01
              MO Center= -4.7D-01, -2.3D+00, -3.1D-03, r^2= 4.2D+00
   Bfn.  Coefficient  Atom+Function         Bfn.  Coefficient  Atom+Function  
  ----- ------------  ---------------      ----- ------------  ---------------
   447      0.272233  27 N  px              314     -0.218208  19 C  px        
   225     -0.208582  15 C  s               394      0.209225  25 C  s         
   343      0.207050  21 C  s               400     -0.200376  25 C  px        
   298      0.196180  18 H  s               420     -0.172952  26 O  s         
   468     -0.161855  28 H  s               279      0.159668  17 N  pz        

 Vector   29  Occ=2.000000D+00  E=-7.466197D-01
              MO Center= -6.9D-01, -1.7D+00,  5.6D-03, r^2= 5.9D+00
   Bfn.  Coefficient  Atom+Function         Bfn.  Coefficient  Atom+Function  
  ----- ------------  ---------------      ----- ------------  ---------------
   448      0.288165  27 N  py              468      0.264562  28 H  s         
   225     -0.212684  15 C  s               397      0.198873  25 C  px        
   145     -0.186526   9 C  py              395     -0.171568  25 C  s         
   315     -0.169402  19 C  py              396      0.164621  25 C  s         
   279      0.151574  17 N  pz        

 Vector   30  Occ=2.000000D+00  E=-7.382007D-01
              MO Center= -4.0D-01, -8.9D-02, -1.4D-01, r^2= 9.2D+00
   Bfn.  Coefficient  Atom+Function         Bfn.  Coefficient  Atom+Function  
  ----- ------------  ---------------      ----- ------------  ---------------
   228     -0.208599  15 C  py              142      0.198457   9 C  py        
   477     -0.189293  29 H  s               448      0.160882  27 N  py        
   145      0.151450   9 C  py        

 Vector   31  Occ=2.000000D+00  E=-6.969838D-01
              MO Center= -1.4D-02, -3.7D-01, -3.7D-01, r^2= 6.2D+00
   Bfn.  Coefficient  Atom+Function         Bfn.  Coefficient  Atom+Function  
  ----- ------------  ---------------      ----- ------------  ---------------
   227      0.203409  15 C  px              254     -0.199228  16 O  pz        
   250      0.194112  16 O  s               278      0.190370  17 N  py        
   313     -0.188258  19 C  pz              252     -0.171422  16 O  px        
   332      0.160432  20 H  s         

 Vector   32  Occ=2.000000D+00  E=-6.853547D-01
              MO Center= -3.7D-01, -1.8D+00, -1.7D-02, r^2= 1.1D+01
   Bfn.  Coefficient  Atom+Function         Bfn.  Coefficient  Atom+Function  
  ----- ------------  ---------------      ----- ------------  ---------------
   397     -0.227468  25 C  px              477     -0.226493  29 H  s         
   447      0.213580  27 N  px              315      0.211690  19 C  py        
   396     -0.182590  25 C  s               420      0.183424  26 O  s         
   309     -0.178874  19 C  s               423     -0.175415  26 O  py        
   478     -0.156000  29 H  s               312      0.154331  19 C  py        

 Vector   33  Occ=2.000000D+00  E=-6.674068D-01
              MO Center=  8.6D-02,  2.3D+00, -7.1D-02, r^2= 8.5D+00
   Bfn.  Coefficient  Atom+Function         Bfn.  Coefficient  Atom+Function  
  ----- ------------  ---------------      ----- ------------  ---------------
    82     -0.251007   6 O  px               58      0.233457   5 C  py        
    80     -0.214773   6 O  s                12      0.169730   2 C  s         

 Vector   34  Occ=2.000000D+00  E=-6.611798D-01
              MO Center=  2.7D-01,  1.2D-02, -5.2D-03, r^2= 8.4D+00
   Bfn.  Coefficient  Atom+Function         Bfn.  Coefficient  Atom+Function  
  ----- ------------  ---------------      ----- ------------  ---------------
   313      0.187128  19 C  pz              139      0.172001   9 C  s         
   141      0.172359   9 C  px              162      0.170875  10 H  s         
   277     -0.165013  17 N  px              298     -0.160446  18 H  s         
   316      0.159081  19 C  pz        

 Vector   35  Occ=2.000000D+00  E=-6.412202D-01
              MO Center= -1.5D-01,  1.8D+00,  2.0D-01, r^2= 6.6D+00
   Bfn.  Coefficient  Atom+Function         Bfn.  Coefficient  Atom+Function  
  ----- ------------  ---------------      ----- ------------  ---------------
   173     -0.357928  11 C  s               139      0.340250   9 C  s         
   177     -0.185336  11 C  pz              229      0.169899  15 C  pz        
   252     -0.166397  16 O  px              145     -0.164717   9 C  py        
    84      0.161911   6 O  pz              225     -0.157105  15 C  s         
   143      0.154028   9 C  pz        

 Vector   36  Occ=2.000000D+00  E=-6.252079D-01
              MO Center= -3.3D-01,  1.8D+00, -6.8D-02, r^2= 7.6D+00
   Bfn.  Coefficient  Atom+Function         Bfn.  Coefficient  Atom+Function  
  ----- ------------  ---------------      ----- ------------  ---------------
   139      0.347783   9 C  s               252      0.243006  16 O  px        
   173     -0.210723  11 C  s                16      0.200167   2 C  pz        
    56      0.190718   5 C  s               229     -0.182075  15 C  pz        
   197      0.177979  12 H  s                 1     -0.167204   1 H  s         

 Vector   37  Occ=2.000000D+00  E=-6.084151D-01
              MO Center=  1.7D-02, -3.3D+00,  1.8D-01, r^2= 5.5D+00
   Bfn.  Coefficient  Atom+Function         Bfn.  Coefficient  Atom+Function  
  ----- ------------  ---------------      ----- ------------  ---------------
   423      0.367686  26 O  py              398     -0.275249  25 C  py        
   420     -0.228090  26 O  s               426      0.186109  26 O  py        
   395      0.175771  25 C  s               309     -0.165987  19 C  s         
   385      0.158227  24 H  s               448      0.151488  27 N  py        
   468      0.151053  28 H  s         

 Vector   38  Occ=2.000000D+00  E=-6.029145D-01
              MO Center= -1.6D-01,  1.1D+00, -2.3D-01, r^2= 9.5D+00
   Bfn.  Coefficient  Atom+Function         Bfn.  Coefficient  Atom+Function  
  ----- ------------  ---------------      ----- ------------  ---------------
   254     -0.210785  16 O  pz              227      0.202471  15 C  px        
    35      0.175497   3 H  s               279     -0.152062  17 N  pz        
   143     -0.150123   9 C  pz        

 Vector   39  Occ=2.000000D+00  E=-5.908322D-01
              MO Center=  7.6D-02,  1.9D+00,  5.5D-01, r^2= 8.6D+00
   Bfn.  Coefficient  Atom+Function         Bfn.  Coefficient  Atom+Function  
  ----- ------------  ---------------      ----- ------------  ---------------
   214      0.218435  14 H  s               215      0.201020  14 H  s         
    82     -0.191147   6 O  px               15      0.188751   2 C  py        
   175      0.189238  11 C  px               57      0.179827   5 C  px        
   176     -0.162886  11 C  py        

 Vector   40  Occ=2.000000D+00  E=-5.717700D-01
              MO Center= -5.1D-02,  3.6D+00, -1.4D-01, r^2= 5.5D+00
   Bfn.  Coefficient  Atom+Function         Bfn.  Coefficient  Atom+Function  
  ----- ------------  ---------------      ----- ------------  ---------------
    45      0.253367   4 H  s                 1     -0.221968   1 H  s         
    82      0.217417   6 O  px               44      0.206898   4 H  s         
    16      0.190192   2 C  pz               83      0.175557   6 O  py        
    57     -0.174622   5 C  px               14      0.168174   2 C  px        

 Vector   41  Occ=2.000000D+00  E=-5.666209D-01
              MO Center=  5.9D-02, -2.6D+00,  3.3D-01, r^2= 6.7D+00
   Bfn.  Coefficient  Atom+Function         Bfn.  Coefficient  Atom+Function  
  ----- ------------  ---------------      ----- ------------  ---------------
   424      0.231049  26 O  pz              399      0.221277  25 C  pz        
   449      0.214188  27 N  pz              347     -0.208049  21 C  pz        
   366     -0.203627  22 H  s               452      0.168774  27 N  pz        
   427      0.165377  26 O  pz              176      0.151749  11 C  py        
   376      0.151969  23 H  s         

 Vector   42  Occ=2.000000D+00  E=-5.628885D-01
              MO Center=  5.9D-01, -4.7D-02, -5.0D-01, r^2= 1.6D+01
   Bfn.  Coefficient  Atom+Function         Bfn.  Coefficient  Atom+Function  
  ----- ------------  ---------------      ----- ------------  ---------------
   375      0.232016  23 H  s               376      0.214578  23 H  s         
   346     -0.197748  21 C  py               44     -0.196570   4 H  s         
   347     -0.183173  21 C  pz               15     -0.166355   2 C  py        
   311     -0.153352  19 C  px               35      0.152163   3 H  s         
    14     -0.151044   2 C  px               45     -0.150465   4 H  s         

 Vector   43  Occ=2.000000D+00  E=-5.558570D-01
              MO Center=  1.2D-01, -1.1D-01,  5.0D-01, r^2= 9.9D+00
   Bfn.  Coefficient  Atom+Function         Bfn.  Coefficient  Atom+Function  
  ----- ------------  ---------------      ----- ------------  ---------------
   196      0.248641  12 H  s               197      0.238678  12 H  s         
   176      0.234278  11 C  py              345      0.163514  21 C  px        
   384      0.158306  24 H  s               225      0.157234  15 C  s         
   252     -0.156060  16 O  px        

 Vector   44  Occ=2.000000D+00  E=-5.490487D-01
              MO Center=  6.0D-01, -3.7D-01, -5.1D-01, r^2= 1.4D+01
   Bfn.  Coefficient  Atom+Function         Bfn.  Coefficient  Atom+Function  
  ----- ------------  ---------------      ----- ------------  ---------------
   139      0.362707   9 C  s               346     -0.262734  21 C  py        
   375      0.251867  23 H  s               376      0.239804  23 H  s         
   225     -0.218547  15 C  s               163     -0.208708  10 H  s         
   145     -0.178392   9 C  py               44      0.157899   4 H  s         
   253      0.157934  16 O  py        

 Vector   45  Occ=2.000000D+00  E=-5.471705D-01
              MO Center=  6.7D-01, -1.7D+00, -2.6D-01, r^2= 8.3D+00
   Bfn.  Coefficient  Atom+Function         Bfn.  Coefficient  Atom+Function  
  ----- ------------  ---------------      ----- ------------  ---------------
   345      0.258735  21 C  px              384      0.248535  24 H  s         
   311     -0.223626  19 C  px              385      0.202204  24 H  s         
   400      0.176413  25 C  px              422      0.171862  26 O  px        
   309     -0.162339  19 C  s         

 Vector   46  Occ=2.000000D+00  E=-5.377822D-01
              MO Center= -8.3D-02,  1.7D+00,  9.2D-01, r^2= 5.1D+00
   Bfn.  Coefficient  Atom+Function         Bfn.  Coefficient  Atom+Function  
  ----- ------------  ---------------      ----- ------------  ---------------
   163      0.271739  10 H  s               175     -0.271597  11 C  px        
   206      0.265076  13 H  s               205      0.247413  13 H  s         
   214     -0.225549  14 H  s               215     -0.216859  14 H  s         
   141      0.205115   9 C  px              162      0.199286  10 H  s         
   109     -0.156141   7 N  pz        

 Vector   47  Occ=2.000000D+00  E=-5.219946D-01
              MO Center=  9.0D-01, -2.7D+00, -4.4D-01, r^2= 3.8D+00
   Bfn.  Coefficient  Atom+Function         Bfn.  Coefficient  Atom+Function  
  ----- ------------  ---------------      ----- ------------  ---------------
   348      0.278554  21 C  px              332      0.267538  20 H  s         
   366      0.254971  22 H  s               343     -0.242113  21 C  s         
   313     -0.218941  19 C  pz              347      0.206001  21 C  pz        
   344      0.204508  21 C  s               311     -0.200895  19 C  px        
   385     -0.199762  24 H  s               367      0.194092  22 H  s         

 Vector   48  Occ=2.000000D+00  E=-5.081634D-01
              MO Center=  1.7D-01,  2.9D+00,  2.4D-01, r^2= 5.1D+00
   Bfn.  Coefficient  Atom+Function         Bfn.  Coefficient  Atom+Function  
  ----- ------------  ---------------      ----- ------------  ---------------
    84      0.271065   6 O  pz               87      0.197029   6 O  pz        
    59      0.179802   5 C  pz              143     -0.168466   9 C  pz        
    82     -0.166315   6 O  px              177      0.165777  11 C  pz        
     1      0.155241   1 H  s                36     -0.155194   3 H  s         
    16     -0.151603   2 C  pz        

 Vector   49  Occ=2.000000D+00  E=-4.599268D-01
              MO Center= -3.9D-01, -9.1D-01, -2.7D-01, r^2= 5.3D+00
   Bfn.  Coefficient  Atom+Function         Bfn.  Coefficient  Atom+Function  
  ----- ------------  ---------------      ----- ------------  ---------------
   253      0.289526  16 O  py              254      0.272201  16 O  pz        
   422      0.258103  26 O  px              256      0.239199  16 O  py        
   257      0.208462  16 O  pz              279     -0.203471  17 N  pz        
   425      0.197347  26 O  px              282     -0.186636  17 N  pz        
   252     -0.173657  16 O  px        

 Vector   50  Occ=2.000000D+00  E=-4.488320D-01
              MO Center= -3.6D-01, -1.1D+00, -2.2D-01, r^2= 5.5D+00
   Bfn.  Coefficient  Atom+Function         Bfn.  Coefficient  Atom+Function  
  ----- ------------  ---------------      ----- ------------  ---------------
   253      0.398712  16 O  py              256      0.329657  16 O  py        
   422     -0.275847  26 O  px              425     -0.212767  26 O  px        
   279      0.183458  17 N  pz              277     -0.181178  17 N  px        
   280     -0.176087  17 N  px        

 Vector   51  Occ=2.000000D+00  E=-4.235851D-01
              MO Center=  6.7D-01,  3.8D+00,  1.1D-01, r^2= 2.2D+00
   Bfn.  Coefficient  Atom+Function         Bfn.  Coefficient  Atom+Function  
  ----- ------------  ---------------      ----- ------------  ---------------
    83      0.506035   6 O  py               13      0.437666   2 C  s         
    86      0.404215   6 O  py               56     -0.256803   5 C  s         
   105      0.241994   7 N  s                64     -0.225563   5 C  py        
   145     -0.217713   9 C  py               84     -0.197781   6 O  pz        
   225     -0.180839  15 C  s                17     -0.166201   2 C  px        

 Vector   52  Occ=2.000000D+00  E=-4.102060D-01
              MO Center= -1.1D-01, -1.5D+00,  7.7D-02, r^2= 9.7D+00
   Bfn.  Coefficient  Atom+Function         Bfn.  Coefficient  Atom+Function  
  ----- ------------  ---------------      ----- ------------  ---------------
   422      0.271289  26 O  px              424     -0.242436  26 O  pz        
   425      0.211227  26 O  px              427     -0.185884  26 O  pz        
   109     -0.183618   7 N  pz              279      0.180687  17 N  pz        
   112     -0.173908   7 N  pz              282      0.163825  17 N  pz        
   139     -0.159633   9 C  s         

 Vector   53  Occ=2.000000D+00  E=-4.076190D-01
              MO Center= -9.1D-01, -3.0D+00,  2.6D-01, r^2= 4.2D+00
   Bfn.  Coefficient  Atom+Function         Bfn.  Coefficient  Atom+Function  
  ----- ------------  ---------------      ----- ------------  ---------------
   449      0.374838  27 N  pz              452      0.311620  27 N  pz        
   424     -0.288356  26 O  pz              284      0.237108  17 N  py        
   427     -0.225026  26 O  pz              422     -0.200374  26 O  px        
   448      0.170195  27 N  py              423     -0.166820  26 O  py        
   425     -0.156739  26 O  px        

 Vector   54  Occ=2.000000D+00  E=-3.984042D-01
              MO Center=  1.3D-01,  1.3D+00,  1.2D-01, r^2= 8.5D+00
   Bfn.  Coefficient  Atom+Function         Bfn.  Coefficient  Atom+Function  
  ----- ------------  ---------------      ----- ------------  ---------------
   109      0.323875   7 N  pz              112      0.304675   7 N  pz        
    84     -0.252870   6 O  pz               87     -0.195226   6 O  pz        
   107     -0.188421   7 N  px              422      0.187076  26 O  px        
   139      0.180081   9 C  s               110     -0.163007   7 N  px        

 Vector   55  Occ=0.000000D+00  E= 2.835423D-02
              MO Center=  1.7D-01,  4.4D-01,  1.5D-01, r^2= 3.3D+01
   Bfn.  Coefficient  Atom+Function         Bfn.  Coefficient  Atom+Function  
  ----- ------------  ---------------      ----- ------------  ---------------
   396      3.129338  25 C  s               174      2.830951  11 C  s         
   226      2.734876  15 C  s               106     -2.573446   7 N  s         
   148      2.526316   9 C  py              276     -2.061455  17 N  s         
    56      1.980273   5 C  s               140      1.746350   9 C  s         
   310      1.740957  19 C  s               173      1.725052  11 C  s         

 Vector   56  Occ=0.000000D+00  E= 3.361142D-02
              MO Center=  3.4D-01,  5.1D-01,  7.6D-02, r^2= 3.6D+01
   Bfn.  Coefficient  Atom+Function         Bfn.  Coefficient  Atom+Function  
  ----- ------------  ---------------      ----- ------------  ---------------
   148      2.518469   9 C  py              276      2.464761  17 N  s         
    64      2.448439   5 C  py              234      2.096516  15 C  py        
   317     -1.923652  19 C  px              386      1.890258  24 H  s         
    37     -1.783166   3 H  s               164      1.733426  10 H  s         
   403     -1.595121  25 C  px              207     -1.584430  13 H  s         

 Vector   57  Occ=0.000000D+00  E= 3.759889D-02
              MO Center= -3.9D-01,  6.8D-01,  1.3D-01, r^2= 3.6D+01
   Bfn.  Coefficient  Atom+Function         Bfn.  Coefficient  Atom+Function  
  ----- ------------  ---------------      ----- ------------  ---------------
    64      3.726264   5 C  py              148      2.917756   9 C  py        
   149     -2.845658   9 C  pz               13     -2.642357   2 C  s         
   234     -2.486127  15 C  py              396     -2.400519  25 C  s         
   446      2.168986  27 N  s                 3     -2.085147   1 H  s         
   216      1.892962  14 H  s               334     -1.715110  20 H  s         

 Vector   58  Occ=0.000000D+00  E= 4.182740D-02
              MO Center= -1.3D+00, -3.7D-01, -3.6D-01, r^2= 3.9D+01
   Bfn.  Coefficient  Atom+Function         Bfn.  Coefficient  Atom+Function  
  ----- ------------  ---------------      ----- ------------  ---------------
   334      2.392664  20 H  s                13      1.957177   2 C  s         
   344     -1.881115  21 C  s               479      1.823453  29 H  s         
   403      1.413858  25 C  px              198     -1.393712  12 H  s         
   310     -1.373317  19 C  s               446      1.280452  27 N  s         
   130      1.226424   8 H  s                37     -1.207941   3 H  s         

 Vector   59  Occ=0.000000D+00  E= 5.215528D-02
              MO Center=  3.4D-01, -3.4D-01, -1.0D+00, r^2= 4.3D+01
   Bfn.  Coefficient  Atom+Function         Bfn.  Coefficient  Atom+Function  
  ----- ------------  ---------------      ----- ------------  ---------------
   377      3.121382  23 H  s                37      3.007647   3 H  s         
   234      2.983969  15 C  py               13      2.582250   2 C  s         
   446     -2.407045  27 N  s                 3     -2.342999   1 H  s         
   164     -2.122612  10 H  s               148     -2.101809   9 C  py        
   226     -1.862141  15 C  s               147      1.710846   9 C  px        

 Vector   60  Occ=0.000000D+00  E= 5.579752D-02
              MO Center=  7.4D-02,  1.3D+00, -3.0D-01, r^2= 4.8D+01
   Bfn.  Coefficient  Atom+Function         Bfn.  Coefficient  Atom+Function  
  ----- ------------  ---------------      ----- ------------  ---------------
    46      3.384203   4 H  s                64     -3.189781   5 C  py        
   148     -3.177415   9 C  py               56      2.932676   5 C  s         
   234      2.932306  15 C  py              106     -2.522215   7 N  s         
   377      2.278608  23 H  s               368      2.141351  22 H  s         
   130     -2.030739   8 H  s               386     -1.899069  24 H  s         

 Vector   61  Occ=0.000000D+00  E= 5.668581D-02
              MO Center=  4.6D-01,  5.9D-01,  9.4D-01, r^2= 3.8D+01
   Bfn.  Coefficient  Atom+Function         Bfn.  Coefficient  Atom+Function  
  ----- ------------  ---------------      ----- ------------  ---------------
   174      3.527277  11 C  s               334     -3.486983  20 H  s         
   226      3.443913  15 C  s               234     -3.379734  15 C  py        
   198     -3.160817  12 H  s               368      2.546853  22 H  s         
    13     -2.227392   2 C  s               173      2.170620  11 C  s         
    46     -2.117679   4 H  s               396     -2.054491  25 C  s         

 Vector   62  Occ=0.000000D+00  E= 5.886906D-02
              MO Center=  3.2D-01,  5.1D-01, -2.1D-01, r^2= 4.0D+01
   Bfn.  Coefficient  Atom+Function         Bfn.  Coefficient  Atom+Function  
  ----- ------------  ---------------      ----- ------------  ---------------
   216      3.967458  14 H  s                46     -3.036860   4 H  s         
    13     -2.830515   2 C  s               386     -2.634862  24 H  s         
     3      2.325999   1 H  s               164     -2.244925  10 H  s         
   147      2.135196   9 C  px              130      2.052984   8 H  s         
    64      2.008384   5 C  py              368      1.945256  22 H  s         

 Vector   63  Occ=0.000000D+00  E= 6.584890D-02
              MO Center= -7.5D-01,  7.4D-01, -3.3D-01, r^2= 3.7D+01
   Bfn.  Coefficient  Atom+Function         Bfn.  Coefficient  Atom+Function  
  ----- ------------  ---------------      ----- ------------  ---------------
   207      4.405584  13 H  s               234     -4.176136  15 C  py        
     3      3.537859   1 H  s               386      2.999642  24 H  s         
   334     -2.667862  20 H  s                37     -2.517985   3 H  s         
    13      2.489178   2 C  s               396      2.109924  25 C  s         
   470     -2.109194  28 H  s               300     -1.978470  18 H  s         

 Vector   64  Occ=0.000000D+00  E= 7.474769D-02
              MO Center=  4.7D-01, -2.1D-02,  5.3D-01, r^2= 4.1D+01
   Bfn.  Coefficient  Atom+Function         Bfn.  Coefficient  Atom+Function  
  ----- ------------  ---------------      ----- ------------  ---------------
   198      4.504390  12 H  s               334     -3.736186  20 H  s         
   377      3.407742  23 H  s               216     -3.258953  14 H  s         
   164      3.020381  10 H  s                64      2.923798   5 C  py        
    37     -2.813511   3 H  s               470      2.670576  28 H  s         
   130      2.449364   8 H  s                13     -2.403447   2 C  s         

 Vector   65  Occ=0.000000D+00  E= 7.615143D-02
              MO Center= -1.6D+00,  1.5D+00,  2.6D-01, r^2= 4.3D+01
   Bfn.  Coefficient  Atom+Function         Bfn.  Coefficient  Atom+Function  
  ----- ------------  ---------------      ----- ------------  ---------------
    13      5.091936   2 C  s                46      4.600823   4 H  s         
    64     -3.417138   5 C  py              470      3.045991  28 H  s         
   207      2.947801  13 H  s               479     -2.773007  29 H  s         
   114     -2.724402   7 N  py               37     -2.655740   3 H  s         
   198     -2.651877  12 H  s               148     -2.404820   9 C  py        

 Vector   66  Occ=0.000000D+00  E= 8.130063D-02
              MO Center=  1.4D+00, -7.1D-01, -9.5D-02, r^2= 3.7D+01
   Bfn.  Coefficient  Atom+Function         Bfn.  Coefficient  Atom+Function  
  ----- ------------  ---------------      ----- ------------  ---------------
   207      4.951608  13 H  s               164      4.853423  10 H  s         
   198     -4.554629  12 H  s               377      4.494508  23 H  s         
   386     -4.423502  24 H  s                56     -4.313055   5 C  s         
    13      4.204523   2 C  s               344      3.929301  21 C  s         
   147     -3.428677   9 C  px              226     -3.415646  15 C  s         

 Vector   67  Occ=0.000000D+00  E= 8.515954D-02
              MO Center=  7.2D-01, -9.8D-01,  9.2D-01, r^2= 3.8D+01
   Bfn.  Coefficient  Atom+Function         Bfn.  Coefficient  Atom+Function  
  ----- ------------  ---------------      ----- ------------  ---------------
    13      7.273625   2 C  s                56     -6.913996   5 C  s         
   216     -5.553341  14 H  s               368      4.922100  22 H  s         
   377     -3.837096  23 H  s               174      3.570462  11 C  s         
   334      3.483254  20 H  s               470     -3.145046  28 H  s         
   198      2.934065  12 H  s               353     -2.612966  21 C  pz        

 Vector   68  Occ=0.000000D+00  E= 9.220064D-02
              MO Center=  6.0D-03,  1.4D+00, -2.3D-01, r^2= 3.5D+01
   Bfn.  Coefficient  Atom+Function         Bfn.  Coefficient  Atom+Function  
  ----- ------------  ---------------      ----- ------------  ---------------
    56     13.287372   5 C  s                13    -12.078772   2 C  s         
   226      7.841462  15 C  s               300      6.990904  18 H  s         
   344     -6.167724  21 C  s               216     -5.898058  14 H  s         
   148      5.402076   9 C  py              140      4.669870   9 C  s         
   106     -4.219368   7 N  s               174     -3.921802  11 C  s         

 Vector   69  Occ=0.000000D+00  E= 1.044557D-01
              MO Center=  1.7D-01,  4.9D-01, -3.3D-02, r^2= 3.6D+01
   Bfn.  Coefficient  Atom+Function         Bfn.  Coefficient  Atom+Function  
  ----- ------------  ---------------      ----- ------------  ---------------
   300      8.551346  18 H  s               164     -7.180809  10 H  s         
    13      5.295774   2 C  s               470     -4.695302  28 H  s         
   130      4.172134   8 H  s               368     -4.171437  22 H  s         
   147      3.242219   9 C  px              216     -3.143426  14 H  s         
    37     -2.748363   3 H  s                56     -2.629660   5 C  s         

 Vector   70  Occ=0.000000D+00  E= 1.100426D-01
              MO Center= -3.2D-01,  5.4D-01, -2.7D-01, r^2= 3.5D+01
   Bfn.  Coefficient  Atom+Function         Bfn.  Coefficient  Atom+Function  
  ----- ------------  ---------------      ----- ------------  ---------------
    13     20.076026   2 C  s                56    -18.824225   5 C  s         
   396     12.157097  25 C  s               226     -9.642682  15 C  s         
    64     -9.120820   5 C  py              234      8.748891  15 C  py        
   164     -7.344305  10 H  s               140     -5.876510   9 C  s         
   318      5.173135  19 C  py              300      5.097096  18 H  s         

 Vector   71  Occ=0.000000D+00  E= 1.185257D-01
              MO Center= -2.3D-01, -2.8D+00, -8.5D-01, r^2= 2.9D+01
   Bfn.  Coefficient  Atom+Function         Bfn.  Coefficient  Atom+Function  
  ----- ------------  ---------------      ----- ------------  ---------------
   396     19.920146  25 C  s               344    -14.699826  21 C  s         
   317     10.679288  19 C  px              234      7.275381  15 C  py        
   404      6.538618  25 C  py              174     -5.711110  11 C  s         
    56     -4.632190   5 C  s               233     -4.508897  15 C  px        
   470     -4.288301  28 H  s               284      4.065891  17 N  py        

 Vector   72  Occ=0.000000D+00  E= 1.196806D-01
              MO Center=  5.0D-01,  1.1D+00, -1.2D+00, r^2= 3.3D+01
   Bfn.  Coefficient  Atom+Function         Bfn.  Coefficient  Atom+Function  
  ----- ------------  ---------------      ----- ------------  ---------------
    56    -20.235657   5 C  s                13     18.690682   2 C  s         
   106      9.462924   7 N  s               276      6.714366  17 N  s         
   344     -6.082516  21 C  s                64     -6.031795   5 C  py        
   140     -5.786544   9 C  s               148     -5.802808   9 C  py        
   318     -5.597190  19 C  py              226     -5.520395  15 C  s         

 Vector   73  Occ=0.000000D+00  E= 1.246575D-01
              MO Center= -3.0D-01, -4.1D-01,  1.6D+00, r^2= 2.7D+01
   Bfn.  Coefficient  Atom+Function         Bfn.  Coefficient  Atom+Function  
  ----- ------------  ---------------      ----- ------------  ---------------
    56      9.336216   5 C  s               148     -6.595637   9 C  py        
   344     -5.462128  21 C  s               174     -4.930592  11 C  s         
   317      4.473835  19 C  px               64     -3.602288   5 C  py        
   216      3.602257  14 H  s               276     -3.589488  17 N  s         
   114     -3.544833   7 N  py              405     -3.463079  25 C  pz        

 Vector   74  Occ=0.000000D+00  E= 1.333179D-01
              MO Center=  5.7D-02, -4.9D-01,  5.8D-01, r^2= 2.5D+01
   Bfn.  Coefficient  Atom+Function         Bfn.  Coefficient  Atom+Function  
  ----- ------------  ---------------      ----- ------------  ---------------
    64      7.242485   5 C  py              396     -6.174920  25 C  s         
   446      6.035711  27 N  s               149     -5.661626   9 C  pz        
   344      5.602085  21 C  s                13     -5.536807   2 C  s         
    56     -5.167417   5 C  s               403      4.643510  25 C  px        
   148      4.423209   9 C  py              318      4.386822  19 C  py        

 Vector   75  Occ=0.000000D+00  E= 1.366908D-01
              MO Center= -3.7D-01, -4.2D-01, -8.3D-01, r^2= 3.2D+01
   Bfn.  Coefficient  Atom+Function         Bfn.  Coefficient  Atom+Function  
  ----- ------------  ---------------      ----- ------------  ---------------
   226     16.899145  15 C  s                13    -14.583701   2 C  s         
   148     13.429796   9 C  py               64     10.882933   5 C  py        
   344    -10.564513  21 C  s               396      9.760563  25 C  s         
    56      9.669845   5 C  s               140      8.569439   9 C  s         
   106     -8.222096   7 N  s               446     -7.799535  27 N  s         

 Vector   76  Occ=0.000000D+00  E= 1.418440D-01
              MO Center=  1.9D-01,  1.8D+00,  3.7D-01, r^2= 2.7D+01
   Bfn.  Coefficient  Atom+Function         Bfn.  Coefficient  Atom+Function  
  ----- ------------  ---------------      ----- ------------  ---------------
   106     10.694339   7 N  s               234     -9.747059  15 C  py        
   318     -7.014048  19 C  py              276     -5.726783  17 N  s         
    56     -5.375986   5 C  s               317      5.258458  19 C  px        
   344     -5.212285  21 C  s               148     -4.833591   9 C  py        
    63      4.715474   5 C  px              147      3.780556   9 C  px        

 Vector   77  Occ=0.000000D+00  E= 1.488485D-01
              MO Center=  2.9D-01,  3.3D-02,  6.4D-01, r^2= 2.6D+01
   Bfn.  Coefficient  Atom+Function         Bfn.  Coefficient  Atom+Function  
  ----- ------------  ---------------      ----- ------------  ---------------
   276     10.444340  17 N  s               396     -8.142971  25 C  s         
   318     -6.807150  19 C  py              173     -4.965787  11 C  s         
   300      4.896010  18 H  s               198      4.469024  12 H  s         
   235     -4.420026  15 C  pz              319     -4.056421  19 C  pz        
   446      4.034749  27 N  s                56     -3.813857   5 C  s         

 Vector   78  Occ=0.000000D+00  E= 1.494711D-01
              MO Center=  5.9D-01, -5.8D-01,  4.7D-01, r^2= 3.0D+01
   Bfn.  Coefficient  Atom+Function         Bfn.  Coefficient  Atom+Function  
  ----- ------------  ---------------      ----- ------------  ---------------
   234      8.756614  15 C  py               64      7.923853   5 C  py        
   148      7.387234   9 C  py               13     -7.015084   2 C  s         
   344      6.585504  21 C  s               318      5.131559  19 C  py        
   317     -4.542247  19 C  px              284      4.083353  17 N  py        
   106     -3.902965   7 N  s               351     -3.567959  21 C  px        

 Vector   79  Occ=0.000000D+00  E= 1.513306D-01
              MO Center=  2.5D-01, -3.1D-01, -3.8D-01, r^2= 3.4D+01
   Bfn.  Coefficient  Atom+Function         Bfn.  Coefficient  Atom+Function  
  ----- ------------  ---------------      ----- ------------  ---------------
   234     14.350196  15 C  py               56    -12.843091   5 C  s         
   226    -12.779545  15 C  s               396     10.895676  25 C  s         
   318     10.455558  19 C  py              446     -8.586926  27 N  s         
   344      8.493589  21 C  s               149      7.170229   9 C  pz        
   174     -7.190374  11 C  s               284      6.469387  17 N  py        

 Vector   80  Occ=0.000000D+00  E= 1.541044D-01
              MO Center= -1.1D-01,  1.3D+00,  6.2D-01, r^2= 2.3D+01
   Bfn.  Coefficient  Atom+Function         Bfn.  Coefficient  Atom+Function  
  ----- ------------  ---------------      ----- ------------  ---------------
   234     -9.783545  15 C  py               56      9.380737   5 C  s         
   174     -5.671465  11 C  s               164      5.541973  10 H  s         
   114     -5.176107   7 N  py              226      4.224801  15 C  s         
   318     -4.189825  19 C  py              149      4.088993   9 C  pz        
    63     -3.027515   5 C  px              198     -2.978400  12 H  s         

 Vector   81  Occ=0.000000D+00  E= 1.563838D-01
              MO Center=  2.2D-01,  8.3D-01,  5.8D-01, r^2= 3.3D+01
   Bfn.  Coefficient  Atom+Function         Bfn.  Coefficient  Atom+Function  
  ----- ------------  ---------------      ----- ------------  ---------------
    56     11.644157   5 C  s               174     -9.525895  11 C  s         
    64     -8.157543   5 C  py              149      6.046019   9 C  pz        
   114     -5.614222   7 N  py              183      5.557670  11 C  pz        
   446     -5.358616  27 N  s               216     -5.231376  14 H  s         
   148     -4.475459   9 C  py              404      4.395274  25 C  py        

 Vector   82  Occ=0.000000D+00  E= 1.612756D-01
              MO Center=  4.6D-01, -6.0D-01, -1.4D+00, r^2= 2.7D+01
   Bfn.  Coefficient  Atom+Function         Bfn.  Coefficient  Atom+Function  
  ----- ------------  ---------------      ----- ------------  ---------------
   396      8.959867  25 C  s                56     -7.037117   5 C  s         
   334     -4.714388  20 H  s               317      4.200182  19 C  px        
   234     -4.012583  15 C  py              333     -3.639739  20 H  s         
   319     -3.169123  19 C  pz               13      3.074481   2 C  s         
   310      2.968423  19 C  s                64     -2.809161   5 C  py        

 Vector   83  Occ=0.000000D+00  E= 1.653363D-01
              MO Center=  5.6D-01, -2.8D-01, -3.7D-03, r^2= 3.3D+01
   Bfn.  Coefficient  Atom+Function         Bfn.  Coefficient  Atom+Function  
  ----- ------------  ---------------      ----- ------------  ---------------
   396      8.369537  25 C  s               317      7.090615  19 C  px        
   344     -6.370453  21 C  s               147     -6.136492   9 C  px        
   148      6.046332   9 C  py              403      4.865563  25 C  px        
   446      4.367285  27 N  s               368     -3.722045  22 H  s         
   164      3.521067  10 H  s               216     -3.390080  14 H  s         

 Vector   84  Occ=0.000000D+00  E= 1.683110D-01
              MO Center=  1.8D-01,  5.7D-01, -6.9D-01, r^2= 3.0D+01
   Bfn.  Coefficient  Atom+Function         Bfn.  Coefficient  Atom+Function  
  ----- ------------  ---------------      ----- ------------  ---------------
   234      9.943862  15 C  py              148      9.777875   9 C  py        
   276      9.635265  17 N  s                64      8.254533   5 C  py        
   300      8.241913  18 H  s               344      8.108737  21 C  s         
   318      7.247583  19 C  py              317     -6.103039  19 C  px        
    13     -4.760894   2 C  s               233     -4.100983  15 C  px        

 Vector   85  Occ=0.000000D+00  E= 1.742975D-01
              MO Center=  4.1D-01,  9.1D-01, -8.8D-01, r^2= 3.3D+01
   Bfn.  Coefficient  Atom+Function         Bfn.  Coefficient  Atom+Function  
  ----- ------------  ---------------      ----- ------------  ---------------
   396     10.974885  25 C  s               234      8.268389  15 C  py        
   318      6.005929  19 C  py              344     -4.924426  21 C  s         
   235      4.760757  15 C  pz              317      4.560719  19 C  px        
   368     -4.426565  22 H  s                56     -4.365526   5 C  s         
    37      3.860797   3 H  s               353      3.763185  21 C  pz        

 Vector   86  Occ=0.000000D+00  E= 1.784580D-01
              MO Center=  2.1D-01, -2.7D-01,  6.3D-01, r^2= 2.5D+01
   Bfn.  Coefficient  Atom+Function         Bfn.  Coefficient  Atom+Function  
  ----- ------------  ---------------      ----- ------------  ---------------
   148     11.662857   9 C  py              234     -7.868384  15 C  py        
   319      5.685344  19 C  pz              198      4.853569  12 H  s         
   182     -4.715911  11 C  py              284      3.839266  17 N  py        
   235     -3.640293  15 C  pz              147     -3.238310   9 C  px        
   233      3.186653  15 C  px              300      2.930640  18 H  s         

 Vector   87  Occ=0.000000D+00  E= 1.799639D-01
              MO Center= -6.0D-01,  1.6D-01, -1.1D-01, r^2= 3.4D+01
   Bfn.  Coefficient  Atom+Function         Bfn.  Coefficient  Atom+Function  
  ----- ------------  ---------------      ----- ------------  ---------------
    13      9.732970   2 C  s               396     -9.179027  25 C  s         
    64     -8.673575   5 C  py              344      8.392269  21 C  s         
   317     -7.647820  19 C  px              446      6.827043  27 N  s         
   403      6.776331  25 C  px              226     -5.268948  15 C  s         
   130     -4.515344   8 H  s                65      4.333029   5 C  pz        

 Vector   88  Occ=0.000000D+00  E= 1.816238D-01
              MO Center= -1.8D-01,  3.0D+00,  3.3D-01, r^2= 2.8D+01
   Bfn.  Coefficient  Atom+Function         Bfn.  Coefficient  Atom+Function  
  ----- ------------  ---------------      ----- ------------  ---------------
    56      6.844539   5 C  s                13     -6.102423   2 C  s         
   396     -6.066295  25 C  s               106     -5.864599   7 N  s         
    12     -5.112035   2 C  s               148     -4.788016   9 C  py        
    45      4.516316   4 H  s               216      3.978889  14 H  s         
    46      3.912677   4 H  s               317     -3.911775  19 C  px        

 Vector   89  Occ=0.000000D+00  E= 1.833034D-01
              MO Center= -1.8D-01,  5.5D-01, -6.5D-01, r^2= 2.8D+01
   Bfn.  Coefficient  Atom+Function         Bfn.  Coefficient  Atom+Function  
  ----- ------------  ---------------      ----- ------------  ---------------
   234      8.198694  15 C  py              319      5.210644  19 C  pz        
   233     -4.438609  15 C  px               13      4.412471   2 C  s         
   148     -4.365233   9 C  py               64     -3.885285   5 C  py        
    63      3.797122   5 C  px               65      3.539100   5 C  pz        
   114      3.515494   7 N  py              334      3.517154  20 H  s         

 Vector   90  Occ=0.000000D+00  E= 1.849724D-01
              MO Center= -2.2D-01,  5.2D-01, -1.8D-01, r^2= 3.0D+01
   Bfn.  Coefficient  Atom+Function         Bfn.  Coefficient  Atom+Function  
  ----- ------------  ---------------      ----- ------------  ---------------
   234     -7.705946  15 C  py              174      7.372109  11 C  s         
   226      6.212136  15 C  s               147     -5.129913   9 C  px        
[...]
   344     -5.414253  21 C  s               285     -4.828361  17 N  pz        

 Vector  137  Occ=0.000000D+00  E= 4.193186D-01
              MO Center=  3.9D-01, -1.4D-01,  4.6D-02, r^2= 2.0D+01
   Bfn.  Coefficient  Atom+Function         Bfn.  Coefficient  Atom+Function  
  ----- ------------  ---------------      ----- ------------  ---------------
   234     11.208328  15 C  py              173     -8.130059  11 C  s         
   318      7.647966  19 C  py              396      6.827743  25 C  s         
   226     -6.088546  15 C  s                64      5.966455   5 C  py        
   197      5.366569  12 H  s                13     -5.337124   2 C  s         
   319      5.337890  19 C  pz              114      5.048843   7 N  py        

 Vector  138  Occ=0.000000D+00  E= 4.247072D-01
              MO Center=  1.4D-01,  1.2D+00, -3.5D-01, r^2= 2.3D+01
   Bfn.  Coefficient  Atom+Function         Bfn.  Coefficient  Atom+Function  
  ----- ------------  ---------------      ----- ------------  ---------------
    56     10.946140   5 C  s               446      9.266469  27 N  s         
   396     -7.318320  25 C  s               284     -5.760007  17 N  py        
   300      4.245360  18 H  s               226      4.083678  15 C  s         
    55      3.718729   5 C  s               115      3.579481   7 N  pz        
    13     -3.402682   2 C  s               164     -3.234707  10 H  s         

 Vector  139  Occ=0.000000D+00  E= 4.302187D-01
              MO Center=  1.1D-01,  7.9D-01,  7.9D-02, r^2= 2.1D+01
   Bfn.  Coefficient  Atom+Function         Bfn.  Coefficient  Atom+Function  
  ----- ------------  ---------------      ----- ------------  ---------------
    13      9.195879   2 C  s               106     -6.766078   7 N  s         
   343     -6.720372  21 C  s               234      6.383128  15 C  py        
    64     -6.250708   5 C  py              174     -6.020276  11 C  s         
   226     -5.906080  15 C  s               114     -5.766997   7 N  py        
   163     -5.023139  10 H  s               149      4.953848   9 C  pz        

 Vector  140  Occ=0.000000D+00  E= 4.341840D-01
              MO Center= -3.2D-01,  1.1D-01,  4.3D-01, r^2= 2.0D+01
   Bfn.  Coefficient  Atom+Function         Bfn.  Coefficient  Atom+Function  
  ----- ------------  ---------------      ----- ------------  ---------------
   276     10.597455  17 N  s               446    -10.267227  27 N  s         
   344      9.180305  21 C  s               174     -9.044275  11 C  s         
   284      7.698959  17 N  py              148      7.526056   9 C  py        
   403     -7.115611  25 C  px              206      6.987667  13 H  s         
   173     -5.852240  11 C  s               285      5.767899  17 N  pz        

 Vector  141  Occ=0.000000D+00  E= 4.396206D-01
              MO Center= -4.1D-01,  2.7D+00, -4.5D-01, r^2= 1.7D+01
   Bfn.  Coefficient  Atom+Function         Bfn.  Coefficient  Atom+Function  
  ----- ------------  ---------------      ----- ------------  ---------------
   148      8.438864   9 C  py              113     -6.584158   7 N  px        
    36      6.247918   3 H  s                13     -5.531305   2 C  s         
   276      5.432753  17 N  s               106     -4.896710   7 N  s         
   147      4.457831   9 C  px              115     -4.363385   7 N  pz        
   226      4.119431  15 C  s               139      3.469920   9 C  s         

 Vector  142  Occ=0.000000D+00  E= 4.445473D-01
              MO Center= -1.6D-01,  2.2D+00, -4.6D-01, r^2= 2.1D+01
   Bfn.  Coefficient  Atom+Function         Bfn.  Coefficient  Atom+Function  
  ----- ------------  ---------------      ----- ------------  ---------------
   276     -7.111910  17 N  s               173      6.946048  11 C  s         
   174      6.194488  11 C  s                56     -6.020036   5 C  s         
   148     -5.999567   9 C  py               13      5.920408   2 C  s         
   215     -5.454929  14 H  s                 2     -5.353382   1 H  s         
   344      4.919038  21 C  s               106      4.527296   7 N  s         

 Vector  143  Occ=0.000000D+00  E= 4.485743D-01
              MO Center= -4.4D-02,  1.5D-01,  3.6D-01, r^2= 1.7D+01
   Bfn.  Coefficient  Atom+Function         Bfn.  Coefficient  Atom+Function  
  ----- ------------  ---------------      ----- ------------  ---------------
   234     10.371218  15 C  py              114      7.927330   7 N  py        
   106     -7.830820   7 N  s               396      6.256732  25 C  s         
   276      5.909611  17 N  s                56     -5.662930   5 C  s         
   344      5.492467  21 C  s               310      5.331473  19 C  s         
   446     -5.002352  27 N  s               215     -4.770139  14 H  s         

 Vector  144  Occ=0.000000D+00  E= 4.528758D-01
              MO Center= -1.3D-01,  7.6D-01,  7.7D-01, r^2= 2.1D+01
   Bfn.  Coefficient  Atom+Function         Bfn.  Coefficient  Atom+Function  
  ----- ------------  ---------------      ----- ------------  ---------------
   174     18.246530  11 C  s               396    -18.135553  25 C  s         
   173     13.125441  11 C  s               344     10.900915  21 C  s         
    56    -10.583552   5 C  s               206    -10.060503  13 H  s         
   148      9.981501   9 C  py              197     -9.760084  12 H  s         
   446      9.256068  27 N  s               106     -8.823258   7 N  s         

 Vector  145  Occ=0.000000D+00  E= 4.610900D-01
              MO Center=  1.1D+00, -1.2D+00, -7.1D-02, r^2= 1.9D+01
   Bfn.  Coefficient  Atom+Function         Bfn.  Coefficient  Atom+Function  
  ----- ------------  ---------------      ----- ------------  ---------------
   344     16.357068  21 C  s                13    -12.107782   2 C  s         
   367     -8.333866  22 H  s                56      7.810933   5 C  s         
   396     -7.448462  25 C  s               284      7.257244  17 N  py        
    64      5.890851   5 C  py              148      5.880037   9 C  py        
    12     -5.403993   2 C  s               114     -5.149540   7 N  py        

 Vector  146  Occ=0.000000D+00  E= 4.634456D-01
              MO Center=  1.0D+00,  3.5D-01,  2.0D-01, r^2= 2.2D+01
   Bfn.  Coefficient  Atom+Function         Bfn.  Coefficient  Atom+Function  
  ----- ------------  ---------------      ----- ------------  ---------------
   396     23.928004  25 C  s                13     18.363807   2 C  s         
    56    -15.042214   5 C  s               148     14.813964   9 C  py        
   344    -13.277573  21 C  s               317     11.307604  19 C  px        
   284     11.003954  17 N  py               64    -10.819627   5 C  py        
   233     -9.614137  15 C  px              276      7.781854  17 N  s         

 Vector  147  Occ=0.000000D+00  E= 4.704074D-01
              MO Center= -1.9D-01, -7.9D-01,  5.2D-01, r^2= 1.9D+01
   Bfn.  Coefficient  Atom+Function         Bfn.  Coefficient  Atom+Function  
  ----- ------------  ---------------      ----- ------------  ---------------
   344     21.126739  21 C  s               226    -16.054547  15 C  s         
   234     14.275029  15 C  py              174    -10.960496  11 C  s         
   317    -10.700712  19 C  px              197      7.307016  12 H  s         
   318      7.044104  19 C  py              173     -6.785647  11 C  s         
   276      6.714987  17 N  s               284      6.557425  17 N  py        

 Vector  148  Occ=0.000000D+00  E= 4.744707D-01
              MO Center=  4.7D-02, -9.2D-02,  3.9D-01, r^2= 2.2D+01
   Bfn.  Coefficient  Atom+Function         Bfn.  Coefficient  Atom+Function  
  ----- ------------  ---------------      ----- ------------  ---------------
   344    -12.640376  21 C  s               226     12.188348  15 C  s         
   234    -11.719554  15 C  py              317      9.038775  19 C  px        
   148      7.914728   9 C  py              276     -6.491116  17 N  s         
   318     -6.359033  19 C  py              174      5.437852  11 C  s         
   403     -5.178630  25 C  px              446     -4.782409  27 N  s         

 Vector  149  Occ=0.000000D+00  E= 4.765656D-01
              MO Center= -3.7D-01,  5.4D-01,  2.3D-01, r^2= 1.8D+01
   Bfn.  Coefficient  Atom+Function         Bfn.  Coefficient  Atom+Function  
  ----- ------------  ---------------      ----- ------------  ---------------
    13     24.376607   2 C  s                56    -14.621189   5 C  s         
   226    -14.299315  15 C  s               148    -13.289504   9 C  py        
    12     12.688924   2 C  s               140     -9.620035   9 C  s         
     2     -8.822704   1 H  s                36     -8.622663   3 H  s         
    64     -8.112754   5 C  py              206      7.546156  13 H  s         

 Vector  150  Occ=0.000000D+00  E= 4.838252D-01
              MO Center= -2.2D-01,  7.6D-01, -4.5D-01, r^2= 2.3D+01
   Bfn.  Coefficient  Atom+Function         Bfn.  Coefficient  Atom+Function  
  ----- ------------  ---------------      ----- ------------  ---------------
   106      6.514558   7 N  s               234     -5.840475  15 C  py        
    13      5.660508   2 C  s                81     -5.316239   6 O  s         
    45     -4.418102   4 H  s                64     -3.747487   5 C  py        
   173      3.759271  11 C  s               130      3.649491   8 H  s         
   113      3.574978   7 N  px              115      3.232756   7 N  pz        

 Vector  151  Occ=0.000000D+00  E= 4.889213D-01
              MO Center=  6.8D-01, -1.1D+00, -4.7D-01, r^2= 1.8D+01
   Bfn.  Coefficient  Atom+Function         Bfn.  Coefficient  Atom+Function  
  ----- ------------  ---------------      ----- ------------  ---------------
   344     29.528928  21 C  s               396    -18.688463  25 C  s         
   343     13.051231  21 C  s               317    -12.893915  19 C  px        
   226    -11.652079  15 C  s               376    -10.503031  23 H  s         
   385    -10.178281  24 H  s                56      8.991693   5 C  s         
   367     -7.517433  22 H  s               318      5.743006  19 C  py        

 Vector  152  Occ=0.000000D+00  E= 4.911907D-01
              MO Center= -2.9D-01,  9.6D-02,  1.3D-01, r^2= 2.0D+01
   Bfn.  Coefficient  Atom+Function         Bfn.  Coefficient  Atom+Function  
  ----- ------------  ---------------      ----- ------------  ---------------
    13     27.245210   2 C  s                56    -24.113156   5 C  s         
   226    -12.204126  15 C  s               344     10.732166  21 C  s         
   106      9.839813   7 N  s               148     -9.666221   9 C  py        
    64     -9.308422   5 C  py              140     -6.893333   9 C  s         
   206     -6.382905  13 H  s               343      6.389515  21 C  s         

 Vector  153  Occ=0.000000D+00  E= 4.935117D-01
              MO Center=  3.8D-01, -2.3D-01,  2.3D-01, r^2= 1.8D+01
   Bfn.  Coefficient  Atom+Function         Bfn.  Coefficient  Atom+Function  
  ----- ------------  ---------------      ----- ------------  ---------------
   148     20.075720   9 C  py              344    -18.416942  21 C  s         
   234    -17.379130  15 C  py              226     13.454253  15 C  s         
   317     11.473052  19 C  px              174     10.630501  11 C  s         
   396     10.107168  25 C  s                56     -9.593251   5 C  s         
   284      7.621101  17 N  py              106     -6.484278   7 N  s         

 Vector  154  Occ=0.000000D+00  E= 5.005577D-01
              MO Center= -3.7D-03,  6.0D-01, -2.3D-01, r^2= 1.9D+01
   Bfn.  Coefficient  Atom+Function         Bfn.  Coefficient  Atom+Function  
  ----- ------------  ---------------      ----- ------------  ---------------
   234     18.140697  15 C  py              114     12.137187   7 N  py        
   148     11.307372   9 C  py               13    -10.856766   2 C  s         
    56    -10.509632   5 C  s                64     10.289191   5 C  py        
   396      9.894081  25 C  s               344      8.952643  21 C  s         
   318      8.746206  19 C  py              284      7.835559  17 N  py        


 center of mass
 --------------
 x =  -0.01190724 y =  -0.03495820 z =  -0.00885845

 moments of inertia (a.u.)
 ------------------
        6414.128646042587          -0.000000000000           0.000000000000
          -0.000000000000        1104.054346339863           0.000000000000
           0.000000000000           0.000000000000        6676.188327133084

  Mulliken analysis of the total density
  --------------------------------------

    Atom       Charge   Shell Charges
 -----------   ------   -------------------------------------------------------
    1 H    1     0.82   0.76  0.09  0.00  0.03 -0.06
    2 C    6     6.44   2.01  0.66  0.27  0.26  2.06  1.05 -0.04  0.06  0.11
    3 H    1     0.84   0.76  0.11  0.00  0.03 -0.06
    4 H    1     0.98   0.76  0.22  0.01  0.03 -0.05
    5 C    6     5.05   2.01  0.68  0.10 -0.11  1.89  0.30 -0.09  0.24  0.03
    6 O    8     8.71   2.01  0.82  0.99  0.15  2.79  1.82  0.14  0.01 -0.02
    7 N    7     7.53   2.01  0.72  0.85 -0.08  2.46  1.45  0.02  0.05  0.05
    8 H    1     1.02   0.75  0.23 -0.00  0.06 -0.03
    9 C    6     6.49   2.01  0.66  0.17  0.03  2.00  1.43 -0.10  0.14  0.16
   10 H    1     1.11   0.78  0.31 -0.00  0.03 -0.00
   11 C    6     5.62   2.01  0.67  0.19  0.19  2.04  0.45  0.01  0.07 -0.00
   12 H    1     1.02   0.76  0.28  0.00  0.03 -0.06
   13 H    1     0.88   0.77  0.15  0.00  0.03 -0.08
   14 H    1     0.89   0.78  0.14  0.01  0.03 -0.07
   15 C    6     4.61   2.01  0.68 -0.06  0.07  1.88  0.11 -0.03  0.23 -0.28
   16 O    8     8.91   2.01  0.82  1.03  0.19  2.80  1.89  0.17  0.01 -0.00
   17 N    7     7.64   2.01  0.72  0.84 -0.07  2.44  1.47  0.12  0.05  0.05
   18 H    1     0.98   0.77  0.22 -0.01  0.05 -0.04
   19 C    6     6.50   2.01  0.66  0.10 -0.03  1.99  1.45 -0.03  0.14  0.21
   20 H    1     0.97   0.78  0.16 -0.01  0.03  0.01
   21 C    6     5.69   2.01  0.66  0.24  0.21  2.04  0.49 -0.03  0.07  0.00
   22 H    1     0.91   0.77  0.17  0.01  0.03 -0.07
   23 H    1     0.99   0.77  0.25  0.01  0.03 -0.07
   24 H    1     0.96   0.77  0.23  0.01  0.03 -0.08
   25 C    6     4.59   2.01  0.68  0.05  0.02  1.89 -0.08 -0.03  0.24 -0.18
   26 O    8     8.74   2.01  0.82  1.03  0.15  2.79  1.81  0.13  0.01 -0.01
   27 N    7     7.22   2.01  0.72  0.81 -0.15  2.47  1.26  0.08  0.04 -0.02
   28 H    1     0.90   0.73  0.20 -0.02  0.06 -0.07
   29 H    1     1.02   0.76  0.24 -0.00  0.05 -0.03

       Multipole analysis of the density wrt the origin
       ------------------------------------------------

     L   x y z        total         open         nuclear
     -   - - -        -----         ----         -------
     0   0 0 0     -0.000000      0.000000    108.000000

     1   1 0 0     -0.448876      0.000000      0.000000
     1   0 1 0      0.517972      0.000000      0.000000
     1   0 0 1     -0.268666      0.000000      0.000000

     2   2 0 0    -59.408047      0.000000    407.146696
     2   1 1 0     -9.819311      0.000000    -48.684456
     2   1 0 1     -2.308411      0.000000     -4.498332
     2   0 2 0    -84.451083      0.000000   3244.859416
     2   0 1 1     -0.362085      0.000000      0.795528
     2   0 0 2    -62.201970      0.000000    260.178168


 Task  times  cpu:     2138.4s     wall:     2319.3s


                                NWChem Input Module
                                -------------------


 Summary of allocated global arrays
-----------------------------------
  No active global arrays


MA_summarize_allocated_blocks: starting scan ...
MA_summarize_allocated_blocks: scan completed: 0 heap blocks, 0 stack blocks
MA usage statistics:

	allocation statistics:
					      heap	     stack
					      ----	     -----
	current number of blocks	         0	         0
	maximum number of blocks	        16	        14
	current total bytes		         0	         0
	maximum total bytes		    102112	  24147784
	maximum total K-bytes		       103	     24148
	maximum total M-bytes		         1	        25


                                     CITATION
                                     --------
                Please cite the following reference when publishing
                           results obtained with NWChem:

          E. Apra, E. J. Bylaska, W. A. de Jong, N. Govind, K. Kowalski,
       T. P. Straatsma, M. Valiev, H. J. J. van Dam, Y. Alexeev, J. Anchell,
       V. Anisimov, F. W. Aquino, R. Atta-Fynn, J. Autschbach, N. P. Bauman,
     J. C. Becca, D. E. Bernholdt, K. Bhaskaran-Nair, S. Bogatko, P. Borowski,
         J. Boschen, J. Brabec, A. Bruner, E. Cauet, Y. Chen, G. N. Chuev,
      C. J. Cramer, J. Daily, M. J. O. Deegan, T. H. Dunning Jr., M. Dupuis,
   K. G. Dyall, G. I. Fann, S. A. Fischer, A. Fonari, H. Fruchtl, L. Gagliardi,
      J. Garza, N. Gawande, S. Ghosh, K. Glaesemann, A. W. Gotz, J. Hammond,
       V. Helms, E. D. Hermes, K. Hirao, S. Hirata, M. Jacquelin, L. Jensen,
   B. G. Johnson, H. Jonsson, R. A. Kendall, M. Klemm, R. Kobayashi, V. Konkov,
      S. Krishnamoorthy, M. Krishnan, Z. Lin, R. D. Lins, R. J. Littlefield,
      A. J. Logsdail, K. Lopata, W. Ma, A. V. Marenich, J. Martin del Campo,
   D. Mejia-Rodriguez, J. E. Moore, J. M. Mullin, T. Nakajima, D. R. Nascimento,
    J. A. Nichols, P. J. Nichols, J. Nieplocha, A. Otero-de-la-Roza, B. Palmer,
    A. Panyala, T. Pirojsirikul, B. Peng, R. Peverati, J. Pittner, L. Pollack,
   R. M. Richard, P. Sadayappan, G. C. Schatz, W. A. Shelton, D. W. Silverstein,
   D. M. A. Smith, T. A. Soares, D. Song, M. Swart, H. L. Taylor, G. S. Thomas,
            V. Tipparaju, D. G. Truhlar, K. Tsemekhman, T. Van Voorhis,
      A. Vazquez-Mayagoitia, P. Verma, O. Villa, A. Vishnu, K. D. Vogiatzis,
        D. Wang, J. H. Weare, M. J. Williamson, T. L. Windus, K. Wolinski,
        A. T. Wong, Q. Wu, C. Yang, Q. Yu, M. Zacharias, Z. Zhang, Y. Zhao,
                                and R. J. Harrison
                        "NWChem: Past, present, and future
                         J. Chem. Phys. 152, 184102 (2020)
                               doi:10.1063/5.0004997

                                      AUTHORS
                                      -------
  E. Apra, E. J. Bylaska, N. Govind, K. Kowalski, M. Valiev, D. Mejia-Rodriguez,
       A. Kunitsa, N. P. Bauman, A. Panyala, W. A. de Jong, T. P. Straatsma,
   H. J. J. van Dam, D. Wang, T. L. Windus, J. Hammond, J. Autschbach, A. Woods,
    K. Bhaskaran-Nair, J. Brabec, K. Lopata, S. A. Fischer, S. Krishnamoorthy,
     M. Jacquelin, W. Ma, M. Klemm, O. Villa, Y. Chen, V. Anisimov, F. Aquino,
     S. Hirata, M. T. Hackler, E. Hermes, L. Jensen, J. E. Moore, J. C. Becca,
      V. Konjkov, T. Risthaus, M. Malagoli, A. Marenich, A. Otero-de-la-Roza,
        J. Mullin, P. Nichols, R. Peverati, J. Pittner, Y. Zhao, P.-D. Fan,
        A. Fonari, M. J. Williamson, R. J. Harrison, J. R. Rehr, M. Dupuis,
     D. Silverstein, D. M. A. Smith, J. Nieplocha, V. Tipparaju, M. Krishnan,
     B. E. Van Kuiken, A. Vazquez-Mayagoitia, M. Swart, Q. Wu, T. Van Voorhis,
     A. A. Auer, M. Nooijen, L. D. Crosby, E. Brown, G. Cisneros, G. I. Fann,
   H. Fruchtl, J. Garza, K. Hirao, R. A. Kendall, J. A. Nichols, K. Tsemekhman,
    K. Wolinski, J. Anchell, D. E. Bernholdt, P. Borowski, T. Clark, D. Clerc,
   H. Dachsel, M. J. O. Deegan, K. Dyall, D. Elwood, E. Glendening, M. Gutowski,
   A. C. Hess, J. Jaffe, B. G. Johnson, J. Ju, R. Kobayashi, R. Kutteh, Z. Lin,
   R. Littlefield, X. Long, B. Meng, T. Nakajima, S. Niu, L. Pollack, M. Rosing,
   K. Glaesemann, G. Sandrone, M. Stave, H. Taylor, G. Thomas, J. H. van Lenthe,
                               A. T. Wong, Z. Zhang.

 Total times  cpu:     2138.4s     wall:     2319.5s
