export TMOUT=5400
export TMPDIR=/tmp
export PTMPDIR=/tmp/ptmp
 argument  1 = ALA_ASN_3.nw
                                         
                                         


             Northwest Computational Chemistry Package (NWChem) 7.2.0
             --------------------------------------------------------


                    Environmental Molecular Sciences Laboratory
                       Pacific Northwest National Laboratory
                                Richland, WA 99352

                              Copyright (c) 1994-2022
                       Pacific Northwest National Laboratory
                            Battelle Memorial Institute

             NWChem is an open-source computational chemistry package
                        distributed under the terms of the
                      Educational Community License (ECL) 2.0
             A copy of the license is included with this distribution
                              in the LICENSE.TXT file

                                  ACKNOWLEDGMENT
                                  --------------

            This software and its documentation were developed at the
            EMSL at Pacific Northwest National Laboratory, a multiprogram
            national laboratory, operated for the U.S. Department of Energy
            by Battelle under Contract Number DE-AC05-76RL01830. Support
            for this work was provided by the Department of Energy Office
            of Biological and Environmental Research, Office of Basic
            Energy Sciences, and the Office of Advanced Scientific Computing.


           Job information
           ---------------

    hostname        = nova18-55
    program         = /opt/rit/el9/20230413/app/linux-rhel9-x86_64_v3/gcc-11.2.1/nwchem-7.2.0-oxtctbuhfuzyfaoziquq6bki22grib3g/bin/nwchem
    date            = Wed Jun 25 13:24:09 2025

    compiled        = Wed_May_17_23:46:39_2023
    source          = /tmp/root/spack-stage/spack-stage-nwchem-7.2.0-oxtctbuhfuzyfaoziquq6bki22grib3g/spack-src
    nwchem branch   = 7.2.0
    nwchem revision = d0d141fd
    ga revision     = 5.8.0
    use scalapack   = T
    input           = ALA_ASN_3.nw
    prefix          = ALA_ASN_3.
    data base       = ./ALA_ASN_3.db
    status          = startup
    nproc           =        8
    time left       =     -1s



           Memory information
           ------------------

    heap     =   26214396 doubles =    200.0 Mbytes
    stack    =   26214401 doubles =    200.0 Mbytes
    global   =   52428800 doubles =    400.0 Mbytes (distinct from heap & stack)
    total    =  104857597 doubles =    800.0 Mbytes
    verify   = yes
    hardfail = no 


           Directory information
           ---------------------

  0 permanent = .
  0 scratch   = .




                                NWChem Input Module
                                -------------------



 Scaling coordinates for geometry "geometry" by  1.889725989
 (inverse scale =  0.529177249)

 C1  symmetry detected

          ------
          auto-z
          ------
  no constraints, skipping    0.0000000000000000     
  no constraints, skipping    0.0000000000000000     


                             Geometry "geometry" -> ""
                             -------------------------

 Output coordinates in angstroms (scale by  1.889725989 to convert to a.u.)

  No.       Tag          Charge          X              Y              Z
 ---- ---------------- ---------- -------------- -------------- --------------
    1 H                    1.0000     0.36977049     5.09393002    -1.41751166
    2 C                    6.0000     1.09325436     4.39686702    -1.00119534
    3 H                    1.0000     1.52660700     4.80500720    -0.08975193
    4 H                    1.0000     1.88395997     4.21399337    -1.72878442
    5 C                    6.0000     0.40811905     3.08881346    -0.68533546
    6 O                    8.0000     0.78664245     2.05390939    -1.22148525
    7 N                    7.0000    -0.60186630     3.14275243     0.18459913
    8 H                    1.0000    -0.82213637     4.03737588     0.58859661
    9 C                    6.0000    -1.34404985     1.97461211     0.67178262
   10 H                    1.0000    -1.92027254     2.29186449     1.54181270
   11 C                    6.0000    -2.36153199     1.54065843    -0.40091645
   12 H                    1.0000    -1.84346914     1.18809416    -1.29545170
   13 H                    1.0000    -2.99599399     0.74223768    -0.01536716
   14 H                    1.0000    -2.99551688     2.38607240    -0.67182672
   15 C                    6.0000    -0.39878675     0.86261050     1.18606279
   16 O                    8.0000     0.46828463     1.12997130     2.01483684
   17 N                    7.0000    -0.55614263    -0.37775890     0.71483898
   18 H                    1.0000    -1.28077844    -0.53667385     0.02768981
   19 C                    6.0000     0.30489109    -1.51688337     1.05497334
   20 H                    1.0000     0.59734423    -1.42124572     2.10307143
   21 C                    6.0000    -0.52605029    -2.80386166     0.90814928
   22 H                    1.0000     0.05847628    -3.66083910     1.24181431
   23 H                    1.0000    -1.41530810    -2.73864280     1.53471454
   24 C                    6.0000    -0.96457575    -3.02392289    -0.52618662
   25 O                    8.0000    -2.01302759    -2.56865057    -0.94567898
   26 N                    7.0000    -0.15198147    -3.66462053    -1.33014375
   27 H                    1.0000    -0.44340187    -3.76964998    -2.28370757
   28 H                    1.0000     0.77295687    -3.90679943    -1.00292599
   29 C                    6.0000     1.62507564    -1.58161766     0.24498802
   30 O                    8.0000     2.24902661    -2.63733044     0.16860916
   31 N                    7.0000     2.04564423    -0.51842369    -0.42713893
   32 H                    1.0000     2.89447146    -0.59068188    -0.96123358
   33 H                    1.0000     1.51823231     0.34545937    -0.41041385

      Atomic Mass 
      ----------- 

      H                  1.007825
      C                 12.000000
      O                 15.994910
      N                 14.003070


 Effective nuclear repulsion energy (a.u.)    1324.4766705117

            Nuclear Dipole moment (a.u.) 
            ----------------------------
        X                 Y               Z
 ---------------- ---------------- ----------------
    -0.0000000000     0.0000000000     0.0000000000



                                Z-matrix (autoz)
                                -------- 

 Units are Angstrom for bonds and degrees for angles

      Type          Name      I     J     K     L     M      Value
      ----------- --------  ----- ----- ----- ----- ----- ----------
    1 Stretch                  1     2                       1.08749
    2 Stretch                  2     3                       1.08862
    3 Stretch                  2     4                       1.08997
    4 Stretch                  2     5                       1.51003
    5 Stretch                  5     6                       1.22546
    6 Stretch                  5     7                       1.33408
    7 Stretch                  7     8                       1.00602
    8 Stretch                  7     9                       1.46722
    9 Stretch                  9    10                       1.09070
   10 Stretch                  9    11                       1.54087
   11 Stretch                  9    15                       1.54743
   12 Stretch                 11    12                       1.09219
   13 Stretch                 11    13                       1.09026
   14 Stretch                 11    14                       1.09090
   15 Stretch                 15    16                       1.22889
   16 Stretch                 15    17                       1.33616
   17 Stretch                 17    18                       1.01120
   18 Stretch                 17    19                       1.46788
   19 Stretch                 19    20                       1.09233
   20 Stretch                 19    21                       1.53894
   21 Stretch                 19    29                       1.55021
   22 Stretch                 21    22                       1.08969
   23 Stretch                 21    23                       1.08978
   24 Stretch                 21    24                       1.51593
   25 Stretch                 24    25                       1.21758
   26 Stretch                 24    26                       1.31040
   27 Stretch                 26    27                       1.00262
   28 Stretch                 26    28                       1.01056
   29 Stretch                 29    30                       1.22869
   30 Stretch                 29    31                       1.32628
   31 Stretch                 31    32                       1.00548
   32 Stretch                 31    33                       1.01229
   33 Bend                     1     2     3               110.18370
   34 Bend                     1     2     4               109.54897
   35 Bend                     1     2     5               109.47961
   36 Bend                     2     5     6               119.99213
   37 Bend                     2     5     7               116.41536
   38 Bend                     3     2     4               109.45155
   39 Bend                     3     2     5               109.28410
   40 Bend                     4     2     5               108.87113
   41 Bend                     5     7     8               117.61828
   42 Bend                     5     7     9               124.56138
   43 Bend                     6     5     7               123.59238
   44 Bend                     7     9    10               107.48918
   45 Bend                     7     9    11               109.09208
   46 Bend                     7     9    15               111.93052
   47 Bend                     8     7     9               117.63907
   48 Bend                     9    11    12               110.35730
   49 Bend                     9    11    13               110.14082
   50 Bend                     9    11    14               109.77863
   51 Bend                     9    15    16               119.92059
   52 Bend                     9    15    17               118.55123
   53 Bend                    10     9    11               106.76090
   54 Bend                    10     9    15               105.46425
   55 Bend                    11     9    15               115.61700
   56 Bend                    12    11    13               109.22438
   57 Bend                    12    11    14               108.81009
   58 Bend                    13    11    14               108.49068
   59 Bend                    15    17    18               118.02999
   60 Bend                    15    17    19               124.72216
   61 Bend                    16    15    17               121.52722
   62 Bend                    17    19    20               108.14591
   63 Bend                    17    19    21               108.06820
   64 Bend                    17    19    29               114.25991
   65 Bend                    18    17    19               117.11995
   66 Bend                    19    21    22               109.80596
   67 Bend                    19    21    23               109.61466
   68 Bend                    19    21    24               111.58389
   69 Bend                    19    29    30               120.05465
   70 Bend                    19    29    31               120.09048
   71 Bend                    20    19    21               108.01843
   72 Bend                    20    19    29               106.08079
   73 Bend                    21    19    29               112.02765
   74 Bend                    21    24    25               121.38602
   75 Bend                    21    24    26               118.16996
   76 Bend                    22    21    23               107.98278
   77 Bend                    22    21    24               109.31311
   78 Bend                    23    21    24               108.45970
   79 Bend                    24    26    27               117.03151
   80 Bend                    24    26    28               119.08363
   81 Bend                    25    24    26               120.35917
   82 Bend                    27    26    28               123.29053
   83 Bend                    29    31    32               118.63860
   84 Bend                    29    31    33               120.69877
   85 Bend                    30    29    31               119.75204
   86 Bend                    32    31    33               120.65987
   87 Torsion                  1     2     5     6         120.35361
   88 Torsion                  1     2     5     7         -59.51854
   89 Torsion                  2     5     7     8          -1.65458
   90 Torsion                  2     5     7     9        -176.63319
   91 Torsion                  3     2     5     6        -118.88295
   92 Torsion                  3     2     5     7          61.24489
   93 Torsion                  4     2     5     6           0.61817
   94 Torsion                  4     2     5     7        -179.25398
   95 Torsion                  5     7     9    10         165.78203
   96 Torsion                  5     7     9    11         -78.81284
   97 Torsion                  5     7     9    15          50.42683
   98 Torsion                  6     5     7     8         178.47835
   99 Torsion                  6     5     7     9           3.49973
  100 Torsion                  7     9    11    12          65.40988
  101 Torsion                  7     9    11    13        -173.91538
  102 Torsion                  7     9    11    14         -54.51753
  103 Torsion                  7     9    15    16          52.22650
  104 Torsion                  7     9    15    17        -128.12396
  105 Torsion                  8     7     9    10          -9.19563
  106 Torsion                  8     7     9    11         106.20950
  107 Torsion                  8     7     9    15        -124.55083
  108 Torsion                  9    15    17    18           0.91982
  109 Torsion                  9    15    17    19         176.67991
  110 Torsion                 10     9    11    12        -178.71745
  111 Torsion                 10     9    11    13         -58.04271
  112 Torsion                 10     9    11    14          61.35514
  113 Torsion                 10     9    15    16         -64.35837
  114 Torsion                 10     9    15    17         115.29116
  115 Torsion                 11     9    15    16         177.96513
  116 Torsion                 11     9    15    17          -2.38534
  117 Torsion                 12    11     9    15         -61.76625
  118 Torsion                 13    11     9    15          58.90848
  119 Torsion                 14    11     9    15         178.30633
  120 Torsion                 15    17    19    20          36.40857
  121 Torsion                 15    17    19    21         153.10837
  122 Torsion                 15    17    19    29         -81.45883
  123 Torsion                 16    15    17    18        -179.43653
  124 Torsion                 16    15    17    19          -3.67645
  125 Torsion                 17    19    21    22        -174.83875
  126 Torsion                 17    19    21    23         -56.36862
  127 Torsion                 17    19    21    24          63.79514
  128 Torsion                 17    19    29    30        -160.63697
  129 Torsion                 17    19    29    31          15.66740
  130 Torsion                 18    17    19    20        -147.79626
  131 Torsion                 18    17    19    21         -31.09646
  132 Torsion                 18    17    19    29          94.33634
  133 Torsion                 19    21    24    25         -89.53323
  134 Torsion                 19    21    24    26          87.12797
  135 Torsion                 19    29    31    32        -178.69377
  136 Torsion                 19    29    31    33           0.70515
  137 Torsion                 20    19    21    22         -58.05634
  138 Torsion                 20    19    21    23          60.41379
  139 Torsion                 20    19    21    24        -179.42245
  140 Torsion                 20    19    29    30          80.32223
  141 Torsion                 20    19    29    31        -103.37340
  142 Torsion                 21    19    29    30         -37.31681
  143 Torsion                 21    19    29    31         138.98756
  144 Torsion                 21    24    26    27        -177.70097
  145 Torsion                 21    24    26    28          -6.24593
  146 Torsion                 22    21    19    29          58.41926
  147 Torsion                 22    21    24    25         148.81502
  148 Torsion                 22    21    24    26         -34.52378
  149 Torsion                 23    21    19    29         176.88940
  150 Torsion                 23    21    24    25          31.30704
  151 Torsion                 23    21    24    26        -152.03176
  152 Torsion                 24    21    19    29         -62.94685
  153 Torsion                 25    24    26    27          -1.00415
  154 Torsion                 25    24    26    28         170.45090
  155 Torsion                 30    29    31    32          -2.37817
  156 Torsion                 30    29    31    33         177.02074


            XYZ format geometry
            -------------------
    33
 geometry
 H                     0.36977049     5.09393002    -1.41751166
 C                     1.09325436     4.39686702    -1.00119534
 H                     1.52660700     4.80500720    -0.08975193
 H                     1.88395997     4.21399337    -1.72878442
 C                     0.40811905     3.08881346    -0.68533546
 O                     0.78664245     2.05390939    -1.22148525
 N                    -0.60186630     3.14275243     0.18459913
 H                    -0.82213637     4.03737588     0.58859661
 C                    -1.34404985     1.97461211     0.67178262
 H                    -1.92027254     2.29186449     1.54181270
 C                    -2.36153199     1.54065843    -0.40091645
 H                    -1.84346914     1.18809416    -1.29545170
 H                    -2.99599399     0.74223768    -0.01536716
 H                    -2.99551688     2.38607240    -0.67182672
 C                    -0.39878675     0.86261050     1.18606279
 O                     0.46828463     1.12997130     2.01483684
 N                    -0.55614263    -0.37775890     0.71483898
 H                    -1.28077844    -0.53667385     0.02768981
 C                     0.30489109    -1.51688337     1.05497334
 H                     0.59734423    -1.42124572     2.10307143
 C                    -0.52605029    -2.80386166     0.90814928
 H                     0.05847628    -3.66083910     1.24181431
 H                    -1.41530810    -2.73864280     1.53471454
 C                    -0.96457575    -3.02392289    -0.52618662
 O                    -2.01302759    -2.56865057    -0.94567898
 N                    -0.15198147    -3.66462053    -1.33014375
 H                    -0.44340187    -3.76964998    -2.28370757
 H                     0.77295687    -3.90679943    -1.00292599
 C                     1.62507564    -1.58161766     0.24498802
 O                     2.24902661    -2.63733044     0.16860916
 N                     2.04564423    -0.51842369    -0.42713893
 H                     2.89447146    -0.59068188    -0.96123358
 H                     1.51823231     0.34545937    -0.41041385

 ==============================================================================
                                internuclear distances
 ------------------------------------------------------------------------------
       center one      |      center two      | atomic units |  angstroms
 ------------------------------------------------------------------------------
    2 C                |   1 H                |     2.05507  |     1.08749
    3 H                |   2 C                |     2.05720  |     1.08862
    4 H                |   2 C                |     2.05975  |     1.08997
    5 C                |   2 C                |     2.85354  |     1.51003
    6 O                |   5 C                |     2.31579  |     1.22546
    7 N                |   5 C                |     2.52104  |     1.33408
    8 H                |   7 N                |     1.90111  |     1.00602
    9 C                |   7 N                |     2.77264  |     1.46722
   10 H                |   9 C                |     2.06113  |     1.09070
   11 C                |   9 C                |     2.91182  |     1.54087
   12 H                |  11 C                |     2.06394  |     1.09219
   13 H                |  11 C                |     2.06029  |     1.09026
   14 H                |  11 C                |     2.06149  |     1.09090
   15 C                |   9 C                |     2.92423  |     1.54743
   16 O                |  15 C                |     2.32226  |     1.22889
   17 N                |  15 C                |     2.52498  |     1.33616
   18 H                |  17 N                |     1.91089  |     1.01120
   19 C                |  17 N                |     2.77389  |     1.46788
   20 H                |  19 C                |     2.06420  |     1.09233
   21 C                |  19 C                |     2.90817  |     1.53894
   22 H                |  21 C                |     2.05921  |     1.08969
   23 H                |  21 C                |     2.05938  |     1.08978
   24 C                |  21 C                |     2.86470  |     1.51593
   25 O                |  24 C                |     2.30089  |     1.21758
   26 N                |  24 C                |     2.47630  |     1.31040
   27 H                |  26 N                |     1.89467  |     1.00262
   28 H                |  26 N                |     1.90968  |     1.01056
   29 C                |  19 C                |     2.92947  |     1.55021
   30 O                |  29 C                |     2.32189  |     1.22869
   31 N                |  29 C                |     2.50630  |     1.32628
   32 H                |  31 N                |     1.90008  |     1.00548
   33 H                |  31 N                |     1.91296  |     1.01229
 ------------------------------------------------------------------------------
                         number of included internuclear distances:         32
 ==============================================================================



 ==============================================================================
                                 internuclear angles
 ------------------------------------------------------------------------------
        center 1       |       center 2       |       center 3       |  degrees
 ------------------------------------------------------------------------------
    1 H                |   2 C                |   3 H                |   110.18
    1 H                |   2 C                |   4 H                |   109.55
    1 H                |   2 C                |   5 C                |   109.48
    3 H                |   2 C                |   4 H                |   109.45
    3 H                |   2 C                |   5 C                |   109.28
    4 H                |   2 C                |   5 C                |   108.87
    2 C                |   5 C                |   6 O                |   119.99
    2 C                |   5 C                |   7 N                |   116.42
    6 O                |   5 C                |   7 N                |   123.59
    5 C                |   7 N                |   8 H                |   117.62
    5 C                |   7 N                |   9 C                |   124.56
    8 H                |   7 N                |   9 C                |   117.64
    7 N                |   9 C                |  10 H                |   107.49
    7 N                |   9 C                |  11 C                |   109.09
    7 N                |   9 C                |  15 C                |   111.93
   10 H                |   9 C                |  11 C                |   106.76
   10 H                |   9 C                |  15 C                |   105.46
   11 C                |   9 C                |  15 C                |   115.62
    9 C                |  11 C                |  12 H                |   110.36
    9 C                |  11 C                |  13 H                |   110.14
    9 C                |  11 C                |  14 H                |   109.78
   12 H                |  11 C                |  13 H                |   109.22
   12 H                |  11 C                |  14 H                |   108.81
   13 H                |  11 C                |  14 H                |   108.49
    9 C                |  15 C                |  16 O                |   119.92
    9 C                |  15 C                |  17 N                |   118.55
   16 O                |  15 C                |  17 N                |   121.53
   15 C                |  17 N                |  18 H                |   118.03
   15 C                |  17 N                |  19 C                |   124.72
   18 H                |  17 N                |  19 C                |   117.12
   17 N                |  19 C                |  20 H                |   108.15
   17 N                |  19 C                |  21 C                |   108.07
   17 N                |  19 C                |  29 C                |   114.26
   20 H                |  19 C                |  21 C                |   108.02
   20 H                |  19 C                |  29 C                |   106.08
   21 C                |  19 C                |  29 C                |   112.03
   19 C                |  21 C                |  22 H                |   109.81
   19 C                |  21 C                |  23 H                |   109.61
   19 C                |  21 C                |  24 C                |   111.58
   22 H                |  21 C                |  23 H                |   107.98
   22 H                |  21 C                |  24 C                |   109.31
   23 H                |  21 C                |  24 C                |   108.46
   21 C                |  24 C                |  25 O                |   121.39
   21 C                |  24 C                |  26 N                |   118.17
   25 O                |  24 C                |  26 N                |   120.36
   24 C                |  26 N                |  27 H                |   117.03
   24 C                |  26 N                |  28 H                |   119.08
   27 H                |  26 N                |  28 H                |   123.29
   19 C                |  29 C                |  30 O                |   120.05
   19 C                |  29 C                |  31 N                |   120.09
   30 O                |  29 C                |  31 N                |   119.75
   29 C                |  31 N                |  32 H                |   118.64
   29 C                |  31 N                |  33 H                |   120.70
   32 H                |  31 N                |  33 H                |   120.66
 ------------------------------------------------------------------------------
                            number of included internuclear angles:         54
 ==============================================================================



  library name resolved from: environment
  library file name is: </opt/rit/el9/20230413/app/linux-rhel9-x86_64_v3/gcc-11.2.1/nwchem-7.2.0-oxtctbuhfuzyfaoziquq6bki22grib3g/share/nwchem/libraries/>
  


 Summary of "ao basis" -> "" (cartesian)
 ------------------------------------------------------------------------------
       Tag                 Description            Shells   Functions and Types
 ---------------- ------------------------------  ------  ---------------------
 *                        aug-cc-pvdz                 on all atoms 


                      Basis "ao basis" -> "ao basis" (cartesian)
                      -----
  H (Hydrogen)
  ------------
            Exponent  Coefficients 
       -------------- ---------------------------------------------------------
  1 S  1.30100000E+01  0.019685
  1 S  1.96200000E+00  0.137977
  1 S  4.44600000E-01  0.478148

  2 S  1.22000000E-01  1.000000

  3 S  2.97400000E-02  1.000000

  4 P  7.27000000E-01  1.000000

  5 P  1.41000000E-01  1.000000

  C (Carbon)
  ----------
            Exponent  Coefficients 
       -------------- ---------------------------------------------------------
  1 S  6.66500000E+03  0.000692
  1 S  1.00000000E+03  0.005329
  1 S  2.28000000E+02  0.027077
  1 S  6.47100000E+01  0.101718
  1 S  2.10600000E+01  0.274740
  1 S  7.49500000E+00  0.448564
  1 S  2.79700000E+00  0.285074
  1 S  5.21500000E-01  0.015204

  2 S  6.66500000E+03 -0.000146
  2 S  1.00000000E+03 -0.001154
  2 S  2.28000000E+02 -0.005725
  2 S  6.47100000E+01 -0.023312
  2 S  2.10600000E+01 -0.063955
  2 S  7.49500000E+00 -0.149981
  2 S  2.79700000E+00 -0.127262
  2 S  5.21500000E-01  0.544529

  3 S  1.59600000E-01  1.000000

  4 S  4.69000000E-02  1.000000

  5 P  9.43900000E+00  0.038109
  5 P  2.00200000E+00  0.209480
  5 P  5.45600000E-01  0.508557

  6 P  1.51700000E-01  1.000000

  7 P  4.04100000E-02  1.000000

  8 D  5.50000000E-01  1.000000

  9 D  1.51000000E-01  1.000000

  O (Oxygen)
  ----------
            Exponent  Coefficients 
       -------------- ---------------------------------------------------------
  1 S  1.17200000E+04  0.000710
  1 S  1.75900000E+03  0.005470
  1 S  4.00800000E+02  0.027837
  1 S  1.13700000E+02  0.104800
  1 S  3.70300000E+01  0.283062
  1 S  1.32700000E+01  0.448719
  1 S  5.02500000E+00  0.270952
  1 S  1.01300000E+00  0.015458

  2 S  1.17200000E+04 -0.000160
  2 S  1.75900000E+03 -0.001263
  2 S  4.00800000E+02 -0.006267
  2 S  1.13700000E+02 -0.025716
  2 S  3.70300000E+01 -0.070924
  2 S  1.32700000E+01 -0.165411
  2 S  5.02500000E+00 -0.116955
  2 S  1.01300000E+00  0.557368

  3 S  3.02300000E-01  1.000000

  4 S  7.89600000E-02  1.000000

  5 P  1.77000000E+01  0.043018
  5 P  3.85400000E+00  0.228913
  5 P  1.04600000E+00  0.508728

  6 P  2.75300000E-01  1.000000

  7 P  6.85600000E-02  1.000000

  8 D  1.18500000E+00  1.000000

  9 D  3.32000000E-01  1.000000

  N (Nitrogen)
  ------------
            Exponent  Coefficients 
       -------------- ---------------------------------------------------------
  1 S  9.04600000E+03  0.000700
  1 S  1.35700000E+03  0.005389
  1 S  3.09300000E+02  0.027406
  1 S  8.77300000E+01  0.103207
  1 S  2.85600000E+01  0.278723
  1 S  1.02100000E+01  0.448540
  1 S  3.83800000E+00  0.278238
  1 S  7.46600000E-01  0.015440

  2 S  9.04600000E+03 -0.000153
  2 S  1.35700000E+03 -0.001208
  2 S  3.09300000E+02 -0.005992
  2 S  8.77300000E+01 -0.024544
  2 S  2.85600000E+01 -0.067459
  2 S  1.02100000E+01 -0.158078
  2 S  3.83800000E+00 -0.121831
  2 S  7.46600000E-01  0.549003

  3 S  2.24800000E-01  1.000000

  4 S  6.12400000E-02  1.000000

  5 P  1.35500000E+01  0.039919
  5 P  2.91700000E+00  0.217169
  5 P  7.97300000E-01  0.510319

  6 P  2.18500000E-01  1.000000

  7 P  5.61100000E-02  1.000000

  8 D  8.17000000E-01  1.000000

  9 D  2.30000000E-01  1.000000



 Summary of "ao basis" -> "ao basis" (cartesian)
 ------------------------------------------------------------------------------
       Tag                 Description            Shells   Functions and Types
 ---------------- ------------------------------  ------  ---------------------
 H                        aug-cc-pvdz                5        9   3s2p
 C                        aug-cc-pvdz                9       25   4s3p2d
 O                        aug-cc-pvdz                9       25   4s3p2d
 N                        aug-cc-pvdz                9       25   4s3p2d


                                 NWChem SCF Module
                                 -----------------



  ao basis        = "ao basis"
  functions       =   569
  atoms           =    33
  closed shells   =    65
  open shells     =     0
  charge          =   0.00
  wavefunction    = RHF 
  input vectors   = atomic
  output vectors  = ./ALA_ASN_3.movecs
  use symmetry    = F
  symmetry adapt  = F


 Summary of "ao basis" -> "ao basis" (cartesian)
 ------------------------------------------------------------------------------
       Tag                 Description            Shells   Functions and Types
 ---------------- ------------------------------  ------  ---------------------
 H                        aug-cc-pvdz                5        9   3s2p
 C                        aug-cc-pvdz                9       25   4s3p2d
 O                        aug-cc-pvdz                9       25   4s3p2d
 N                        aug-cc-pvdz                9       25   4s3p2d



 Forming initial guess at       1.0s


 !! The overlap matrix has   4 vectors deemed linearly dependent with
    eigenvalues:
 3.51D-06 5.14D-06 8.74D-06 9.11D-06


      Superposition of Atomic Density Guess
      -------------------------------------

 Sum of atomic energies:        -863.27065637

      Non-variational initial energy
      ------------------------------

 Total energy =    -874.080769
 1-e energy   =   -3806.862120
 2-e energy   =    1608.304680
 HOMO         =      -0.311907
 LUMO         =       0.010068


 Starting SCF solution at     241.0s



 ----------------------------------------------
         Quadratically convergent ROHF

 Convergence threshold     :          1.000E-04
 Maximum no. of iterations :           30
 Final Fock-matrix accuracy:          1.000E-10
 ----------------------------------------------


              iter       energy          gnorm     gmax       time
             ----- ------------------- --------- --------- --------
                 1     -867.1674582038  2.65D+00  1.71D-01    493.5
                 2     -867.5331840891  8.46D-01  3.56D-02    976.3
                 3     -867.5959737261  6.80D-02  4.12D-03   1717.1
                 4     -867.5966733234  4.41D-03  3.37D-04   2650.1
                 5     -867.5966768753  9.41D-06  6.25D-07   4385.6


       Final RHF  results 
       ------------------ 

         Total SCF energy =   -867.596676875349
      One-electron energy =  -3818.952372879915
      Two-electron energy =   1626.879025492871
 Nuclear repulsion energy =   1324.476670511695

        Time for solution =   4149.0s


             Final eigenvalues
             -----------------

              1      
    1  -20.5436
    2  -20.5322
    3  -20.5235
    4  -20.5214
    5  -15.6164
    6  -15.6053
    7  -15.5874
    8  -15.5796
    9  -11.3738
   10  -11.3683
   11  -11.3578
   12  -11.3531
   13  -11.3143
   14  -11.3103
   15  -11.2578
   16  -11.2543
   17  -11.2450
   18   -1.4079
   19   -1.3959
   20   -1.3907
   21   -1.3827
   22   -1.2625
   23   -1.2540
   24   -1.2243
   25   -1.2054
   26   -1.0851
   27   -1.0544
   28   -1.0041
   29   -0.9393
   30   -0.9044
   31   -0.8382
   32   -0.8130
   33   -0.7968
   34   -0.7815
   35   -0.7493
   36   -0.7344
   37   -0.7277
   38   -0.7025
   39   -0.6862
   40   -0.6702
   41   -0.6613
   42   -0.6424
   43   -0.6371
   44   -0.6145
   45   -0.6127
   46   -0.6046
   47   -0.5908
   48   -0.5824
   49   -0.5800
   50   -0.5724
   51   -0.5677
   52   -0.5567
   53   -0.5471
   54   -0.5415
   55   -0.5294
   56   -0.5230
   57   -0.5162
   58   -0.4466
   59   -0.4401
   60   -0.4364
   61   -0.4239
   62   -0.4124
   63   -0.4120
   64   -0.4011
   65   -0.3903
   66    0.0225
   67    0.0354
   68    0.0399
   69    0.0425
   70    0.0483
   71    0.0511
   72    0.0596
   73    0.0619
   74    0.0692
   75    0.0713

                       ROHF Final Molecular Orbital Analysis
                       -------------------------------------

 Vector   18  Occ=2.000000D+00  E=-1.407862D+00
              MO Center=  4.4D-01,  2.2D+00, -5.3D-01, r^2= 2.2D+00
   Bfn.  Coefficient  Atom+Function         Bfn.  Coefficient  Atom+Function  
  ----- ------------  ---------------      ----- ------------  ---------------
    80      0.326714   6 O  s                79      0.319327   6 O  s         
    54      0.224817   5 C  s         

 Vector   19  Occ=2.000000D+00  E=-1.395934D+00
              MO Center= -8.8D-01, -2.0D+00, -4.5D-01, r^2= 5.2D+00
   Bfn.  Coefficient  Atom+Function         Bfn.  Coefficient  Atom+Function  
  ----- ------------  ---------------      ----- ------------  ---------------
   411      0.308691  25 O  s               410      0.296275  25 O  s         
   385      0.214717  24 C  s         

 Vector   20  Occ=2.000000D+00  E=-1.390700D+00
              MO Center= -1.5D-01,  1.2D-02,  6.9D-01, r^2= 6.2D+00
   Bfn.  Coefficient  Atom+Function         Bfn.  Coefficient  Atom+Function  
  ----- ------------  ---------------      ----- ------------  ---------------
   250      0.294545  16 O  s               249      0.274509  16 O  s         
   224      0.194386  15 C  s               411     -0.190465  25 O  s         
   410     -0.174319  25 O  s         

 Vector   21  Occ=2.000000D+00  E=-1.382694D+00
              MO Center=  1.7D+00, -1.8D+00,  2.8D-01, r^2= 2.8D+00
   Bfn.  Coefficient  Atom+Function         Bfn.  Coefficient  Atom+Function  
  ----- ------------  ---------------      ----- ------------  ---------------
   504      0.365809  30 O  s               503      0.331864  30 O  s         
   478      0.226248  29 C  s         

 Vector   22  Occ=2.000000D+00  E=-1.262541D+00
              MO Center= -4.0D-01,  2.9D+00,  1.1D-02, r^2= 1.7D+00
   Bfn.  Coefficient  Atom+Function         Bfn.  Coefficient  Atom+Function  
  ----- ------------  ---------------      ----- ------------  ---------------
   105      0.421859   7 N  s               104      0.345273   7 N  s         
    80     -0.213261   6 O  s                79     -0.179290   6 O  s         
   128      0.158136   8 H  s         

 Vector   23  Occ=2.000000D+00  E=-1.253951D+00
              MO Center= -1.9D-01, -2.7D-01,  8.6D-01, r^2= 2.2D+00
   Bfn.  Coefficient  Atom+Function         Bfn.  Coefficient  Atom+Function  
  ----- ------------  ---------------      ----- ------------  ---------------
   275      0.356513  17 N  s               274      0.330188  17 N  s         
   250     -0.219436  16 O  s               309     -0.185735  19 C  s         
   249     -0.179391  16 O  s         

 Vector   24  Occ=2.000000D+00  E=-1.224341D+00
              MO Center= -4.7D-01, -3.4D+00, -1.1D+00, r^2= 1.4D+00
   Bfn.  Coefficient  Atom+Function         Bfn.  Coefficient  Atom+Function  
  ----- ------------  ---------------      ----- ------------  ---------------
   435      0.364299  26 N  s               436      0.335607  26 N  s         
   411     -0.221520  25 O  s               388      0.189876  24 C  px        
   410     -0.189694  25 O  s               468      0.161443  28 H  s         
   459      0.153921  27 H  s         

 Vector   25  Occ=2.000000D+00  E=-1.205390D+00
              MO Center=  1.8D+00, -8.4D-01, -2.1D-01, r^2= 1.8D+00
   Bfn.  Coefficient  Atom+Function         Bfn.  Coefficient  Atom+Function  
  ----- ------------  ---------------      ----- ------------  ---------------
   529      0.402809  31 N  s               528      0.366617  31 N  s         
   504     -0.205746  30 O  s               309     -0.204334  19 C  s         
   482      0.197737  29 C  py              503     -0.166874  30 O  s         
   480      0.159009  29 C  s               552      0.157677  32 H  s         
   561      0.158328  33 H  s               275     -0.151120  17 N  s         

 Vector   26  Occ=2.000000D+00  E=-1.085103D+00
              MO Center= -6.0D-01,  3.1D-01,  4.4D-01, r^2= 7.4D+00
   Bfn.  Coefficient  Atom+Function         Bfn.  Coefficient  Atom+Function  
  ----- ------------  ---------------      ----- ------------  ---------------
   138      0.189314   9 C  s               308     -0.178784  19 C  s         
   343     -0.173651  21 C  s               342     -0.171415  21 C  s         

 Vector   27  Occ=2.000000D+00  E=-1.054413D+00
              MO Center= -4.6D-01,  2.2D-01,  2.7D-01, r^2= 9.7D+00
   Bfn.  Coefficient  Atom+Function         Bfn.  Coefficient  Atom+Function  
  ----- ------------  ---------------      ----- ------------  ---------------
   343      0.284546  21 C  s               342      0.211237  21 C  s         
   138      0.159650   9 C  s         

 Vector   28  Occ=2.000000D+00  E=-1.004074D+00
              MO Center=  1.4D-01,  3.3D+00, -6.5D-01, r^2= 5.7D+00
   Bfn.  Coefficient  Atom+Function         Bfn.  Coefficient  Atom+Function  
  ----- ------------  ---------------      ----- ------------  ---------------
    11      0.307437   2 C  s               144     -0.188120   9 C  px        
   172      0.169913  11 C  s               174      0.159938  11 C  s         

 Vector   29  Occ=2.000000D+00  E=-9.393097D-01
              MO Center= -2.6D-01, -1.5D+00,  4.4D-01, r^2= 5.5D+00
   Bfn.  Coefficient  Atom+Function         Bfn.  Coefficient  Atom+Function  
  ----- ------------  ---------------      ----- ------------  ---------------
   343      0.346601  21 C  s               308     -0.201925  19 C  s         
   342      0.198436  21 C  s               350     -0.177290  21 C  pz        
   139      0.158753   9 C  s               393     -0.156213  24 C  pz        

 Vector   30  Occ=2.000000D+00  E=-9.043559D-01
              MO Center= -1.1D+00,  1.5D+00,  1.2D-01, r^2= 5.7D+00
   Bfn.  Coefficient  Atom+Function         Bfn.  Coefficient  Atom+Function  
  ----- ------------  ---------------      ----- ------------  ---------------
   172     -0.235352  11 C  s               144      0.218150   9 C  px        
   138      0.185607   9 C  s               173     -0.179227  11 C  s         
   197      0.164744  12 H  s               174     -0.162618  11 C  s         

 Vector   31  Occ=2.000000D+00  E=-8.382369D-01
              MO Center=  4.0D-04,  1.2D+00,  2.4D-01, r^2= 6.8D+00
   Bfn.  Coefficient  Atom+Function         Bfn.  Coefficient  Atom+Function  
  ----- ------------  ---------------      ----- ------------  ---------------
   309      0.311690  19 C  s               139      0.219832   9 C  s         
   107      0.184037   7 N  px              278      0.174893  17 N  py        
   128     -0.166641   8 H  s               109     -0.163061   7 N  pz        
   224      0.157970  15 C  s               314      0.156194  19 C  px        
    54      0.150356   5 C  s         

 Vector   32  Occ=2.000000D+00  E=-8.130285D-01
              MO Center=  8.7D-02, -1.8D+00, -4.1D-01, r^2= 8.1D+00
   Bfn.  Coefficient  Atom+Function         Bfn.  Coefficient  Atom+Function  
  ----- ------------  ---------------      ----- ------------  ---------------
   314      0.203908  19 C  px              385      0.199301  24 C  s         
   309      0.194624  19 C  s               440      0.193095  26 N  pz        
   387     -0.176320  24 C  s               459     -0.169787  27 H  s         
   484      0.168317  29 C  px        

 Vector   33  Occ=2.000000D+00  E=-7.967820D-01
              MO Center= -3.5D-01,  6.1D-01,  5.4D-01, r^2= 5.1D+00
   Bfn.  Coefficient  Atom+Function         Bfn.  Coefficient  Atom+Function  
  ----- ------------  ---------------      ----- ------------  ---------------
   225      0.302925  15 C  s               298     -0.234830  18 H  s         
   278      0.212036  17 N  py              228     -0.199361  15 C  py        
   275     -0.197878  17 N  s               279      0.188451  17 N  pz        
   128      0.185711   8 H  s               480      0.179649  29 C  s         
   108      0.154886   7 N  py              231     -0.151309  15 C  py        

 Vector   34  Occ=2.000000D+00  E=-7.815390D-01
              MO Center=  4.5D-01, -1.4D+00, -3.1D-01, r^2= 7.9D+00
   Bfn.  Coefficient  Atom+Function         Bfn.  Coefficient  Atom+Function  
  ----- ------------  ---------------      ----- ------------  ---------------
   532     -0.194561  31 N  py              438      0.182090  26 N  px        
   386     -0.161504  24 C  s               478      0.156741  29 C  s         
   468      0.152432  28 H  s         

 Vector   35  Occ=2.000000D+00  E=-7.493284D-01
              MO Center=  7.9D-01, -1.2D+00, -2.9D-01, r^2= 6.4D+00
   Bfn.  Coefficient  Atom+Function         Bfn.  Coefficient  Atom+Function  
  ----- ------------  ---------------      ----- ------------  ---------------
   532      0.232845  31 N  py              561      0.231181  33 H  s         
   479     -0.201110  29 C  s               438      0.177501  26 N  px        
   468      0.169984  28 H  s               481     -0.165262  29 C  px        
   562      0.160323  33 H  s               314      0.154537  19 C  px        

 Vector   36  Occ=2.000000D+00  E=-7.343790D-01
              MO Center= -2.8D-01, -1.8D-01, -9.7D-02, r^2= 9.9D+00
   Bfn.  Coefficient  Atom+Function         Bfn.  Coefficient  Atom+Function  
  ----- ------------  ---------------      ----- ------------  ---------------
   225      0.292736  15 C  s               145      0.272275   9 C  py        
   108     -0.206408   7 N  py              438      0.185897  26 N  px        
   468      0.185147  28 H  s               314     -0.157144  19 C  px        
   128     -0.153361   8 H  s         

 Vector   37  Occ=2.000000D+00  E=-7.277325D-01
              MO Center= -1.3D-01,  5.7D-01, -3.8D-01, r^2= 1.3D+01
   Bfn.  Coefficient  Atom+Function         Bfn.  Coefficient  Atom+Function  
  ----- ------------  ---------------      ----- ------------  ---------------
   108      0.181450   7 N  py              459     -0.175393  27 H  s         
   440      0.173929  26 N  pz              468      0.163284  28 H  s         
   145     -0.158122   9 C  py              438      0.157399  26 N  px        

 Vector   38  Occ=2.000000D+00  E=-7.024669D-01
              MO Center=  6.7D-01, -2.6D-01, -2.2D-01, r^2= 9.0D+00
   Bfn.  Coefficient  Atom+Function         Bfn.  Coefficient  Atom+Function  
  ----- ------------  ---------------      ----- ------------  ---------------
   531      0.231816  31 N  px              552      0.220340  32 H  s         
   561     -0.172647  33 H  s         

 Vector   39  Occ=2.000000D+00  E=-6.861986D-01
              MO Center=  1.3D-02,  2.7D-01,  3.8D-01, r^2= 8.1D+00
   Bfn.  Coefficient  Atom+Function         Bfn.  Coefficient  Atom+Function  
  ----- ------------  ---------------      ----- ------------  ---------------
    83      0.184704   6 O  py              314      0.172318  19 C  px        
   250      0.165404  16 O  s                12      0.162727   2 C  s         
   252      0.156063  16 O  px              228     -0.151399  15 C  py        

 Vector   40  Occ=2.000000D+00  E=-6.701589D-01
              MO Center=  1.0D-01, -8.3D-01, -1.3D-01, r^2= 9.4D+00
   Bfn.  Coefficient  Atom+Function         Bfn.  Coefficient  Atom+Function  
  ----- ------------  ---------------      ----- ------------  ---------------
   440     -0.166166  26 N  pz               83      0.157670   6 O  py        

 Vector   41  Occ=2.000000D+00  E=-6.612551D-01
              MO Center= -2.4D-01,  6.0D-01,  3.0D-02, r^2= 9.7D+00
   Bfn.  Coefficient  Atom+Function         Bfn.  Coefficient  Atom+Function  
  ----- ------------  ---------------      ----- ------------  ---------------
   173      0.257327  11 C  s               139     -0.191128   9 C  s         
   144      0.191315   9 C  px              141      0.169371   9 C  px        
    83      0.163201   6 O  py               57      0.158975   5 C  px        
   250     -0.156503  16 O  s               109      0.151730   7 N  pz        

 Vector   42  Occ=2.000000D+00  E=-6.423705D-01
              MO Center= -6.2D-02,  2.8D-01,  2.2D-01, r^2= 1.1D+01
   Bfn.  Coefficient  Atom+Function         Bfn.  Coefficient  Atom+Function  
  ----- ------------  ---------------      ----- ------------  ---------------
   332     -0.172059  20 H  s               313     -0.170928  19 C  pz        
   139      0.159672   9 C  s         

 Vector   43  Occ=2.000000D+00  E=-6.370962D-01
              MO Center=  1.9D-01,  1.7D+00, -2.3D-01, r^2= 1.0D+01
   Bfn.  Coefficient  Atom+Function         Bfn.  Coefficient  Atom+Function  
  ----- ------------  ---------------      ----- ------------  ---------------
   173      0.188162  11 C  s               174      0.184306  11 C  s         
    35      0.181582   3 H  s               197     -0.177953  12 H  s         
    59      0.172865   5 C  pz               16      0.169808   2 C  pz        

 Vector   44  Occ=2.000000D+00  E=-6.145070D-01
              MO Center=  1.8D-01,  3.0D-01,  1.1D-01, r^2= 9.7D+00
   Bfn.  Coefficient  Atom+Function         Bfn.  Coefficient  Atom+Function  
  ----- ------------  ---------------      ----- ------------  ---------------
   252      0.180979  16 O  px              343     -0.157300  21 C  s         
   229     -0.156139  15 C  pz               58      0.154901   5 C  py        

 Vector   45  Occ=2.000000D+00  E=-6.126711D-01
              MO Center=  2.5D-01,  5.2D-02, -2.8D-01, r^2= 1.1D+01
   Bfn.  Coefficient  Atom+Function         Bfn.  Coefficient  Atom+Function  
  ----- ------------  ---------------      ----- ------------  ---------------
    58      0.237265   5 C  py               18     -0.184291   2 C  py        
   507      0.179277  30 O  py               55     -0.176710   5 C  s         
    15     -0.150757   2 C  py        

 Vector   46  Occ=2.000000D+00  E=-6.046029D-01
              MO Center=  4.3D-01, -1.0D+00,  8.5D-02, r^2= 8.6D+00
   Bfn.  Coefficient  Atom+Function         Bfn.  Coefficient  Atom+Function  
  ----- ------------  ---------------      ----- ------------  ---------------
   507      0.193680  30 O  py              346      0.166782  21 C  py        
   309     -0.159014  19 C  s               387     -0.158357  24 C  s         

 Vector   47  Occ=2.000000D+00  E=-5.908382D-01
              MO Center= -3.2D-01, -1.0D-01,  7.2D-02, r^2= 1.0D+01
   Bfn.  Coefficient  Atom+Function         Bfn.  Coefficient  Atom+Function  
  ----- ------------  ---------------      ----- ------------  ---------------
   413      0.182631  25 O  px              176      0.160944  11 C  py        
   507     -0.153254  30 O  py        

 Vector   48  Occ=2.000000D+00  E=-5.824425D-01
              MO Center= -2.0D-01, -1.8D+00, -1.3D-01, r^2= 7.8D+00
   Bfn.  Coefficient  Atom+Function         Bfn.  Coefficient  Atom+Function  
  ----- ------------  ---------------      ----- ------------  ---------------
   413      0.229232  25 O  px              388     -0.203621  24 C  px        
   414     -0.203270  25 O  py              347      0.187411  21 C  pz        
   390     -0.187984  24 C  pz              344     -0.161926  21 C  s         
   387      0.156547  24 C  s         

 Vector   49  Occ=2.000000D+00  E=-5.800468D-01
              MO Center=  4.8D-01,  3.1D+00, -7.5D-01, r^2= 7.0D+00
   Bfn.  Coefficient  Atom+Function         Bfn.  Coefficient  Atom+Function  
  ----- ------------  ---------------      ----- ------------  ---------------
    44     -0.268579   4 H  s                16      0.259993   2 C  pz        
    45     -0.254626   4 H  s                35      0.204778   3 H  s         
   175      0.156883  11 C  px        

 Vector   50  Occ=2.000000D+00  E=-5.723549D-01
              MO Center= -3.6D-01,  1.8D+00, -2.6D-01, r^2= 1.0D+01
   Bfn.  Coefficient  Atom+Function         Bfn.  Coefficient  Atom+Function  
  ----- ------------  ---------------      ----- ------------  ---------------
    14      0.233579   2 C  px              215     -0.215538  14 H  s         
   214     -0.196851  14 H  s               175      0.186615  11 C  px        
     1     -0.178220   1 H  s               344     -0.172658  21 C  s         
   309     -0.168402  19 C  s                44      0.150016   4 H  s         

 Vector   51  Occ=2.000000D+00  E=-5.676763D-01
              MO Center= -9.6D-01,  5.1D-01,  4.2D-01, r^2= 6.9D+00
   Bfn.  Coefficient  Atom+Function         Bfn.  Coefficient  Atom+Function  
  ----- ------------  ---------------      ----- ------------  ---------------
   206      0.268850  13 H  s               254     -0.244473  16 O  pz        
   177      0.223922  11 C  pz              227      0.222626  15 C  px        
   214     -0.173645  14 H  s               480      0.170301  29 C  s         
   205      0.155768  13 H  s               257     -0.156048  16 O  pz        

 Vector   52  Occ=2.000000D+00  E=-5.566710D-01
              MO Center= -8.2D-01,  1.5D+00, -7.8D-02, r^2= 9.4D+00
   Bfn.  Coefficient  Atom+Function         Bfn.  Coefficient  Atom+Function  
  ----- ------------  ---------------      ----- ------------  ---------------
   215      0.276220  14 H  s               176      0.254870  11 C  py        
   214      0.199801  14 H  s                14      0.184293   2 C  px        
   173     -0.180499  11 C  s                44      0.166793   4 H  s         
   108      0.165862   7 N  py              205     -0.156878  13 H  s         

 Vector   53  Occ=2.000000D+00  E=-5.470997D-01
              MO Center= -3.4D-01, -1.0D+00,  9.5D-02, r^2= 9.5D+00
   Bfn.  Coefficient  Atom+Function         Bfn.  Coefficient  Atom+Function  
  ----- ------------  ---------------      ----- ------------  ---------------
   376      0.258933  23 H  s               197     -0.212768  12 H  s         
   366     -0.202845  22 H  s               367     -0.190480  22 H  s         
   284      0.175812  17 N  py              345     -0.160572  21 C  px        
   196     -0.154273  12 H  s               346      0.155022  21 C  py        
   481     -0.151679  29 C  px        

 Vector   54  Occ=2.000000D+00  E=-5.414708D-01
              MO Center= -4.0D-01, -1.5D+00,  3.7D-01, r^2= 7.5D+00
   Bfn.  Coefficient  Atom+Function         Bfn.  Coefficient  Atom+Function  
  ----- ------------  ---------------      ----- ------------  ---------------
   343      0.313705  21 C  s               375      0.261026  23 H  s         
   345     -0.230287  21 C  px              315      0.207034  19 C  py        
   139     -0.150962   9 C  s         

 Vector   55  Occ=2.000000D+00  E=-5.293803D-01
              MO Center= -2.9D-01,  9.6D-01,  1.1D-01, r^2= 8.6D+00
   Bfn.  Coefficient  Atom+Function         Bfn.  Coefficient  Atom+Function  
  ----- ------------  ---------------      ----- ------------  ---------------
   197      0.196675  12 H  s               163      0.175811  10 H  s         
   196      0.167410  12 H  s                84      0.165339   6 O  pz        
   162      0.162695  10 H  s               205     -0.155088  13 H  s         
   206     -0.150484  13 H  s         

 Vector   56  Occ=2.000000D+00  E=-5.230003D-01
              MO Center=  4.1D-01,  1.6D-01,  1.5D-02, r^2= 9.7D+00
   Bfn.  Coefficient  Atom+Function         Bfn.  Coefficient  Atom+Function  
  ----- ------------  ---------------      ----- ------------  ---------------
   332      0.185200  20 H  s               349     -0.185911  21 C  py        
   313      0.175983  19 C  pz              309      0.167729  19 C  s         
    82     -0.163900   6 O  px               84     -0.164633   6 O  pz        
   508     -0.155445  30 O  pz        

 Vector   57  Occ=2.000000D+00  E=-5.162425D-01
              MO Center= -4.6D-01,  5.4D-02,  2.0D-01, r^2= 8.9D+00
   Bfn.  Coefficient  Atom+Function         Bfn.  Coefficient  Atom+Function  
  ----- ------------  ---------------      ----- ------------  ---------------
   346      0.200905  21 C  py              312     -0.186763  19 C  py        
   143      0.179342   9 C  pz              162      0.170213  10 H  s         
   343     -0.168024  21 C  s         

 Vector   58  Occ=2.000000D+00  E=-4.465802D-01
              MO Center=  1.1D+00, -1.0D+00,  5.6D-01, r^2= 6.1D+00
   Bfn.  Coefficient  Atom+Function         Bfn.  Coefficient  Atom+Function  
  ----- ------------  ---------------      ----- ------------  ---------------
   506      0.319702  30 O  px              509      0.253892  30 O  px        
   507      0.211536  30 O  py              508     -0.199556  30 O  pz        
   254      0.197112  16 O  pz              279     -0.177104  17 N  pz        
   252     -0.175815  16 O  px              333     -0.169620  20 H  s         
   343     -0.166912  21 C  s               510      0.163365  30 O  py        

 Vector   59  Occ=2.000000D+00  E=-4.401308D-01
              MO Center=  6.5D-01,  2.3D+00, -8.1D-01, r^2= 3.4D+00
   Bfn.  Coefficient  Atom+Function         Bfn.  Coefficient  Atom+Function  
  ----- ------------  ---------------      ----- ------------  ---------------
    82      0.321558   6 O  px               83      0.309452   6 O  py        
    84     -0.263643   6 O  pz               85      0.259779   6 O  px        
    86      0.239133   6 O  py               87     -0.217080   6 O  pz        
    15      0.214535   2 C  py               18      0.174202   2 C  py        
   105      0.163068   7 N  s         

 Vector   60  Occ=2.000000D+00  E=-4.363934D-01
              MO Center= -1.2D-02,  1.5D+00,  9.5D-01, r^2= 4.2D+00
   Bfn.  Coefficient  Atom+Function         Bfn.  Coefficient  Atom+Function  
  ----- ------------  ---------------      ----- ------------  ---------------
   253      0.447513  16 O  py              256      0.355425  16 O  py        
   173     -0.271872  11 C  s                82      0.210655   6 O  px        
   163      0.209779  10 H  s               109     -0.194755   7 N  pz        
    85      0.172233   6 O  px        

 Vector   61  Occ=2.000000D+00  E=-4.238580D-01
              MO Center= -1.3D+00, -2.5D+00, -5.4D-01, r^2= 3.3D+00
   Bfn.  Coefficient  Atom+Function         Bfn.  Coefficient  Atom+Function  
  ----- ------------  ---------------      ----- ------------  ---------------
   415      0.438235  25 O  pz              418      0.341466  25 O  pz        
   414      0.260015  25 O  py              387     -0.219340  24 C  s         
   417      0.213998  25 O  py              393     -0.207146  24 C  pz        
   347      0.188846  21 C  pz              386     -0.155036  24 C  s         
   437      0.153904  26 N  s         

 Vector   62  Occ=2.000000D+00  E=-4.123780D-01
              MO Center= -3.8D-01, -2.5D+00, -7.9D-01, r^2= 5.5D+00
   Bfn.  Coefficient  Atom+Function         Bfn.  Coefficient  Atom+Function  
  ----- ------------  ---------------      ----- ------------  ---------------
   439      0.344250  26 N  py              442      0.312868  26 N  py        
   415      0.248065  25 O  pz              414     -0.203953  25 O  py        
   418      0.195707  25 O  pz              413     -0.184724  25 O  px        
   437     -0.173340  26 N  s               417     -0.164189  25 O  py        
   533      0.160187  31 N  pz              386     -0.154083  24 C  s         

 Vector   63  Occ=2.000000D+00  E=-4.120200D-01
              MO Center= -2.6D-01,  1.5D+00,  5.0D-02, r^2= 7.0D+00
   Bfn.  Coefficient  Atom+Function         Bfn.  Coefficient  Atom+Function  
  ----- ------------  ---------------      ----- ------------  ---------------
   109      0.265690   7 N  pz              112      0.248489   7 N  pz        
   107      0.247120   7 N  px              110      0.217044   7 N  px        
    84     -0.198731   6 O  pz              253      0.184810  16 O  py        
    82     -0.165724   6 O  px              256      0.161758  16 O  py        
    87     -0.160289   6 O  pz        

 Vector   64  Occ=2.000000D+00  E=-4.011335D-01
              MO Center=  1.2D+00, -1.5D+00, -1.7D-01, r^2= 5.7D+00
   Bfn.  Coefficient  Atom+Function         Bfn.  Coefficient  Atom+Function  
  ----- ------------  ---------------      ----- ------------  ---------------
   508      0.358338  30 O  pz              511      0.284109  30 O  pz        
   533     -0.239572  31 N  pz              536     -0.209321  31 N  pz        
   531     -0.184135  31 N  px              414     -0.160888  25 O  py        
   532     -0.157026  31 N  py              439      0.155511  26 N  py        
   442      0.150002  26 N  py        

 Vector   65  Occ=2.000000D+00  E=-3.903168D-01
              MO Center=  7.1D-01, -7.6D-01,  7.2D-01, r^2= 4.7D+00
   Bfn.  Coefficient  Atom+Function         Bfn.  Coefficient  Atom+Function  
  ----- ------------  ---------------      ----- ------------  ---------------
   506      0.284208  30 O  px              279      0.259045  17 N  pz        
   277     -0.227757  17 N  px              282      0.228755  17 N  pz        
   280     -0.224208  17 N  px              509      0.218479  30 O  px        
   480      0.201821  29 C  s               344     -0.199599  21 C  s         
   254     -0.196419  16 O  pz              252      0.192146  16 O  px        

 Vector   66  Occ=0.000000D+00  E= 2.248710D-02
              MO Center= -1.9D+00,  4.9D+00,  2.9D-01, r^2= 1.8D+01
   Bfn.  Coefficient  Atom+Function         Bfn.  Coefficient  Atom+Function  
  ----- ------------  ---------------      ----- ------------  ---------------
    12      2.323038   2 C  s               300      1.931476  18 H  s         
   106     -1.883085   7 N  s               216     -1.808866  14 H  s         
    56      1.685591   5 C  s               164     -1.633287  10 H  s         
    13      1.376721   2 C  s                 3     -1.337501   1 H  s         
   234      1.340465  15 C  py                2     -1.297881   1 H  s         

 Vector   67  Occ=0.000000D+00  E= 3.542050D-02
              MO Center= -7.8D-01,  3.1D+00,  3.6D-01, r^2= 3.7D+01
   Bfn.  Coefficient  Atom+Function         Bfn.  Coefficient  Atom+Function  
  ----- ------------  ---------------      ----- ------------  ---------------
   300      5.196203  18 H  s               344     -4.125144  21 C  s         
   149      3.371669   9 C  pz              164     -3.303006  10 H  s         
    64     -2.941355   5 C  py              480      2.502403  29 C  s         
    63     -2.449514   5 C  px              377     -2.405907  23 H  s         
   207     -1.942040  13 H  s                12     -1.894979   2 C  s         

 Vector   68  Occ=0.000000D+00  E= 3.992279D-02
              MO Center=  1.9D-01, -2.1D+00, -1.3D+00, r^2= 3.5D+01
   Bfn.  Coefficient  Atom+Function         Bfn.  Coefficient  Atom+Function  
  ----- ------------  ---------------      ----- ------------  ---------------
   300      3.836417  18 H  s               198     -2.078988  12 H  s         
   106      1.986280   7 N  s               437     -1.920595  26 N  s         
   461     -1.915806  27 H  s               130      1.737180   8 H  s         
   480      1.737727  29 C  s               387      1.590873  24 C  s         
   396     -1.570333  24 C  pz               46     -1.527145   4 H  s         

 Vector   69  Occ=0.000000D+00  E= 4.253890D-02
              MO Center= -1.5D+00,  3.1D+00,  1.6D-01, r^2= 3.2D+01
   Bfn.  Coefficient  Atom+Function         Bfn.  Coefficient  Atom+Function  
  ----- ------------  ---------------      ----- ------------  ---------------
   234     -5.503847  15 C  py              174      5.027580  11 C  s         
   149      4.549650   9 C  pz              216      4.056575  14 H  s         
   318     -3.638512  19 C  py              164     -2.949525  10 H  s         
   181      2.752029  11 C  px              344     -2.411183  21 C  s         
   147      2.266460   9 C  px               37     -2.234412   3 H  s         

 Vector   70  Occ=0.000000D+00  E= 4.827517D-02
              MO Center= -3.7D-01, -7.0D-01, -8.5D-01, r^2= 4.4D+01
   Bfn.  Coefficient  Atom+Function         Bfn.  Coefficient  Atom+Function  
  ----- ------------  ---------------      ----- ------------  ---------------
   344     -4.112974  21 C  s               300      3.945767  18 H  s         
   437      3.870825  26 N  s               377     -3.243829  23 H  s         
   396      2.725058  24 C  pz              130      2.594321   8 H  s         
   106      2.404537   7 N  s               353      2.248807  21 C  pz        
   461      2.159522  27 H  s               148     -1.548553   9 C  py        

 Vector   71  Occ=0.000000D+00  E= 5.110661D-02
              MO Center=  5.7D-01,  3.6D-01, -2.2D-01, r^2= 4.4D+01
   Bfn.  Coefficient  Atom+Function         Bfn.  Coefficient  Atom+Function  
  ----- ------------  ---------------      ----- ------------  ---------------
   368      2.812903  22 H  s                46     -2.691436   4 H  s         
   530     -2.559772  31 N  s                 3      2.484938   1 H  s         
   164     -2.427930  10 H  s               234      2.275327  15 C  py        
   554     -1.901258  32 H  s               352      1.843548  21 C  py        
   489     -1.664600  29 C  pz              318      1.641098  19 C  py        

 Vector   72  Occ=0.000000D+00  E= 5.956752D-02
              MO Center=  7.4D-01,  2.3D-01,  1.3D-01, r^2= 4.2D+01
   Bfn.  Coefficient  Atom+Function         Bfn.  Coefficient  Atom+Function  
  ----- ------------  ---------------      ----- ------------  ---------------
   207      3.300857  13 H  s                37      3.083101   3 H  s         
   234     -2.984647  15 C  py              334     -2.434238  20 H  s         
   554     -2.225972  32 H  s               149      1.846454   9 C  pz        
   377      1.736056  23 H  s               368     -1.700768  22 H  s         
   300     -1.625961  18 H  s                56     -1.504862   5 C  s         

 Vector   73  Occ=0.000000D+00  E= 6.186657D-02
              MO Center= -4.9D-01,  3.1D+00,  1.5D-01, r^2= 3.9D+01
   Bfn.  Coefficient  Atom+Function         Bfn.  Coefficient  Atom+Function  
  ----- ------------  ---------------      ----- ------------  ---------------
   164      4.696086  10 H  s               300      4.143487  18 H  s         
    37     -3.992370   3 H  s               216     -3.927944  14 H  s         
     3      3.241580   1 H  s               149     -2.646063   9 C  pz        
   181     -2.393928  11 C  px              368     -2.166748  22 H  s         
   387      1.947110  24 C  s                46      1.873168   4 H  s         

 Vector   74  Occ=0.000000D+00  E= 6.920633D-02
              MO Center=  5.3D-01, -1.1D+00,  3.3D-01, r^2= 4.3D+01
   Bfn.  Coefficient  Atom+Function         Bfn.  Coefficient  Atom+Function  
  ----- ------------  ---------------      ----- ------------  ---------------
   368      4.822296  22 H  s               334     -3.758157  20 H  s         
   234     -3.304567  15 C  py               46      3.145624   4 H  s         
   106     -2.879617   7 N  s               317      2.756005  19 C  px        
   226      2.675252  15 C  s               351     -2.624021  21 C  px        
   318     -2.320925  19 C  py              377     -2.316900  23 H  s         

 Vector   75  Occ=0.000000D+00  E= 7.131119D-02
              MO Center= -7.7D-02, -7.8D-01,  1.7D+00, r^2= 3.7D+01
   Bfn.  Coefficient  Atom+Function         Bfn.  Coefficient  Atom+Function  
  ----- ------------  ---------------      ----- ------------  ---------------
   334      6.276681  20 H  s               480      5.299861  29 C  s         
   377     -4.579861  23 H  s               319     -4.201217  19 C  pz        
   387     -4.009363  24 C  s               226     -3.982070  15 C  s         
   530     -3.748888  31 N  s               130     -2.969783   8 H  s         
   164      2.955480  10 H  s               317     -2.147413  19 C  px        

 Vector   76  Occ=0.000000D+00  E= 7.380607D-02
              MO Center=  3.0D-01,  8.8D-01, -1.5D+00, r^2= 4.1D+01
   Bfn.  Coefficient  Atom+Function         Bfn.  Coefficient  Atom+Function  
  ----- ------------  ---------------      ----- ------------  ---------------
   198      4.375972  12 H  s                46      3.573700   4 H  s         
     3     -3.263181   1 H  s               207     -3.072527  13 H  s         
   470     -2.997820  28 H  s               480      3.006438  29 C  s         
   174     -2.797885  11 C  s               130      2.662453   8 H  s         
   368      2.635506  22 H  s               114     -2.574156   7 N  py        

 Vector   77  Occ=0.000000D+00  E= 8.226000D-02
              MO Center= -1.6D+00,  1.4D-01, -1.4D+00, r^2= 3.7D+01
   Bfn.  Coefficient  Atom+Function         Bfn.  Coefficient  Atom+Function  
  ----- ------------  ---------------      ----- ------------  ---------------
   198      7.239748  12 H  s               216     -6.372347  14 H  s         
   147      3.876069   9 C  px               56     -3.597345   5 C  s         
   234     -3.556166  15 C  py              182      3.511311  11 C  py        
   207      3.482692  13 H  s               300     -3.478241  18 H  s         
   344      3.366666  21 C  s               368      3.338351  22 H  s         

 Vector   78  Occ=0.000000D+00  E= 8.783660D-02
              MO Center= -1.8D+00,  3.4D-01,  2.9D-01, r^2= 3.7D+01
   Bfn.  Coefficient  Atom+Function         Bfn.  Coefficient  Atom+Function  
  ----- ------------  ---------------      ----- ------------  ---------------
   207      7.183514  13 H  s               387     -5.502267  24 C  s         
   377     -4.807137  23 H  s               164     -4.203495  10 H  s         
   334      3.456670  20 H  s               130      3.201744   8 H  s         
   198     -3.116422  12 H  s               149      2.953262   9 C  pz        
   216     -2.881140  14 H  s                37     -2.659256   3 H  s         

 Vector   79  Occ=0.000000D+00  E= 9.218673D-02
              MO Center=  5.2D-01, -1.2D+00, -5.2D-01, r^2= 4.4D+01
   Bfn.  Coefficient  Atom+Function         Bfn.  Coefficient  Atom+Function  
  ----- ------------  ---------------      ----- ------------  ---------------
   368      5.839994  22 H  s               470     -5.600287  28 H  s         
   344      4.549714  21 C  s               164      4.326330  10 H  s         
   480     -4.062700  29 C  s               130     -3.660795   8 H  s         
   226      3.550822  15 C  s                46     -3.259963   4 H  s         
   334     -3.072053  20 H  s               149     -3.031796   9 C  pz        

 Vector   80  Occ=0.000000D+00  E= 1.002981D-01
              MO Center=  4.6D-01, -3.6D-01,  2.6D-01, r^2= 3.7D+01
   Bfn.  Coefficient  Atom+Function         Bfn.  Coefficient  Atom+Function  
  ----- ------------  ---------------      ----- ------------  ---------------
   387     23.003513  24 C  s               563     -7.683495  33 H  s         
   437     -6.489771  26 N  s               310     -5.422541  19 C  s         
   317      5.388755  19 C  px              318      4.828700  19 C  py        
   344     -4.832777  21 C  s               353      4.410429  21 C  pz        
   300     -4.056658  18 H  s               394      3.578037  24 C  px        

 Vector   81  Occ=0.000000D+00  E= 1.073383D-01
              MO Center= -5.1D-01, -9.5D-01, -4.5D-01, r^2= 3.7D+01
   Bfn.  Coefficient  Atom+Function         Bfn.  Coefficient  Atom+Function  
  ----- ------------  ---------------      ----- ------------  ---------------
   387     25.714825  24 C  s               563     10.181603  33 H  s         
   480     -9.127456  29 C  s               310     -7.446008  19 C  s         
   344     -7.304005  21 C  s               437     -6.622855  26 N  s         
   318      5.708449  19 C  py              396      4.952298  24 C  pz        
   226      4.896500  15 C  s               394      4.920659  24 C  px        

 Vector   82  Occ=0.000000D+00  E= 1.147180D-01
              MO Center=  8.2D-01, -4.7D-01,  1.2D+00, r^2= 3.3D+01
   Bfn.  Coefficient  Atom+Function         Bfn.  Coefficient  Atom+Function  
  ----- ------------  ---------------      ----- ------------  ---------------
   480     30.445842  29 C  s               226    -20.762899  15 C  s         
   344    -14.747048  21 C  s               317     -9.331149  19 C  px        
   530     -9.074207  31 N  s               487     -7.750226  29 C  px        
   563     -7.299491  33 H  s               284      7.112470  17 N  py        
   235      5.220489  15 C  pz               56      5.180316   5 C  s         

 Vector   83  Occ=0.000000D+00  E= 1.200066D-01
              MO Center= -1.6D+00,  6.9D-01,  3.2D-01, r^2= 2.9D+01
   Bfn.  Coefficient  Atom+Function         Bfn.  Coefficient  Atom+Function  
  ----- ------------  ---------------      ----- ------------  ---------------
   300     19.272590  18 H  s               174     -8.197856  11 C  s         
   387     -7.799194  24 C  s               147     -7.415229   9 C  px        
   234      5.601907  15 C  py              207     -4.971073  13 H  s         
    56      4.745321   5 C  s               480      4.763240  29 C  s         
   377     -4.615261  23 H  s               276      4.453717  17 N  s         

 Vector   84  Occ=0.000000D+00  E= 1.262028D-01
              MO Center=  2.9D-01,  3.4D-01,  1.7D-01, r^2= 3.1D+01
   Bfn.  Coefficient  Atom+Function         Bfn.  Coefficient  Atom+Function  
  ----- ------------  ---------------      ----- ------------  ---------------
   300      8.296923  18 H  s               563     -6.655009  33 H  s         
   149      5.100174   9 C  pz              480     -5.032816  29 C  s         
    56      4.928227   5 C  s               234     -4.905043  15 C  py        
   530      4.653356  31 N  s               276     -4.272964  17 N  s         
   437      3.607633  26 N  s               106     -3.519972   7 N  s         

 Vector   85  Occ=0.000000D+00  E= 1.299809D-01
              MO Center= -7.1D-01,  1.9D+00,  5.6D-01, r^2= 2.8D+01
   Bfn.  Coefficient  Atom+Function         Bfn.  Coefficient  Atom+Function  
  ----- ------------  ---------------      ----- ------------  ---------------
   148      7.845795   9 C  py              174      6.415518  11 C  s         
   106     -5.863329   7 N  s               344      4.882833  21 C  s         
   334      4.408410  20 H  s               130     -4.344630   8 H  s         
   318      3.841541  19 C  py              114      3.485556   7 N  py        
   319     -3.324703  19 C  pz              300     -3.019043  18 H  s         

 Vector   86  Occ=0.000000D+00  E= 1.337161D-01
              MO Center= -6.3D-01,  2.1D+00,  4.9D-01, r^2= 2.8D+01
   Bfn.  Coefficient  Atom+Function         Bfn.  Coefficient  Atom+Function  
  ----- ------------  ---------------      ----- ------------  ---------------
   276     -6.292932  17 N  s               480     -5.999637  29 C  s         
   106      5.764124   7 N  s               387     -5.604925  24 C  s         
   148     -5.096253   9 C  py              344      4.958788  21 C  s         
   234     -4.921580  15 C  py               56     -3.578719   5 C  s         
   563     -3.552226  33 H  s                65     -3.365795   5 C  pz        

 Vector   87  Occ=0.000000D+00  E= 1.404982D-01
              MO Center= -5.1D-01,  1.4D-02,  1.0D-01, r^2= 3.1D+01
   Bfn.  Coefficient  Atom+Function         Bfn.  Coefficient  Atom+Function  
  ----- ------------  ---------------      ----- ------------  ---------------
   234    -18.529881  15 C  py              174     17.591038  11 C  s         
   149     13.488907   9 C  pz              318    -11.977242  19 C  py        
   344    -11.891750  21 C  s               300    -10.969040  18 H  s         
   233      6.648421  15 C  px              198      6.358673  12 H  s         
   147      5.792217   9 C  px              387      4.720546  24 C  s         

 Vector   88  Occ=0.000000D+00  E= 1.422134D-01
              MO Center= -3.5D-02, -3.5D-01, -6.4D-02, r^2= 3.3D+01
   Bfn.  Coefficient  Atom+Function         Bfn.  Coefficient  Atom+Function  
  ----- ------------  ---------------      ----- ------------  ---------------
   344     19.748794  21 C  s               174    -15.226452  11 C  s         
   318     14.354370  19 C  py              234      9.303771  15 C  py        
   149     -8.861296   9 C  pz              300     -7.594337  18 H  s         
   147     -6.707104   9 C  px              387     -6.437214  24 C  s         
   233     -6.225122  15 C  px              351      6.141920  21 C  px        

 Vector   89  Occ=0.000000D+00  E= 1.446883D-01
              MO Center=  9.7D-02,  2.2D+00,  5.8D-01, r^2= 3.5D+01
   Bfn.  Coefficient  Atom+Function         Bfn.  Coefficient  Atom+Function  
  ----- ------------  ---------------      ----- ------------  ---------------
   344      8.005425  21 C  s                63      4.824609   5 C  px        
    12      4.566304   2 C  s               353     -4.569984  21 C  pz        
   437     -4.562678  26 N  s                65     -4.454796   5 C  pz        
    64      3.890274   5 C  py               21      3.662079   2 C  py        
   300     -3.630316  18 H  s               234      3.581150  15 C  py        

 Vector   90  Occ=0.000000D+00  E= 1.469283D-01
              MO Center= -2.6D-01, -5.3D-01,  4.3D-01, r^2= 3.2D+01
   Bfn.  Coefficient  Atom+Function         Bfn.  Coefficient  Atom+Function  
  ----- ------------  ---------------      ----- ------------  ---------------
   174     11.259993  11 C  s               234     -9.609659  15 C  py        
   147      8.525196   9 C  px              387     -6.011001  24 C  s         
   437      5.940497  26 N  s                56     -5.387389   5 C  s         
   149      4.814545   9 C  pz              480     -4.436111  29 C  s         
   148      4.310299   9 C  py              394     -3.932728  24 C  px        

 Vector   91  Occ=0.000000D+00  E= 1.497739D-01
              MO Center= -8.8D-01,  1.2D+00, -5.0D-01, r^2= 3.2D+01
   Bfn.  Coefficient  Atom+Function         Bfn.  Coefficient  Atom+Function  
  ----- ------------  ---------------      ----- ------------  ---------------
   387     12.443497  24 C  s               437     -6.961925  26 N  s         
    56      6.469825   5 C  s               174     -5.051944  11 C  s         
   149     -4.918861   9 C  pz              148     -4.444953   9 C  py        
   164      4.371289  10 H  s                13      3.731685   2 C  s         
   216     -3.645734  14 H  s               173      3.624613  11 C  s         

 Vector   92  Occ=0.000000D+00  E= 1.545806D-01
              MO Center=  1.1D-01,  1.0D+00, -1.1D+00, r^2= 3.4D+01
   Bfn.  Coefficient  Atom+Function         Bfn.  Coefficient  Atom+Function  
  ----- ------------  ---------------      ----- ------------  ---------------
   437     11.309385  26 N  s               387     -7.405738  24 C  s         
   234      5.310275  15 C  py               63      5.245229   5 C  px        
   396      4.761760  24 C  pz              149     -4.434034   9 C  pz        
   394     -4.278647  24 C  px                3     -4.006025   1 H  s         
   318      3.802150  19 C  py               21      3.283175   2 C  py        

 Vector   93  Occ=0.000000D+00  E= 1.557150D-01
              MO Center= -5.1D-01, -7.0D-01, -4.7D-01, r^2= 3.6D+01
   Bfn.  Coefficient  Atom+Function         Bfn.  Coefficient  Atom+Function  
  ----- ------------  ---------------      ----- ------------  ---------------
[...]
  ----- ------------  ---------------      ----- ------------  ---------------
   387     -9.753755  24 C  s               114      9.005404   7 N  py        
   344      7.833597  21 C  s               437      7.417376  26 N  s         
    56     -5.668820   5 C  s               310      4.904670  19 C  s         
   106     -4.507241   7 N  s               353     -4.376640  21 C  pz        
   333     -4.329177  20 H  s               319      3.915487  19 C  pz        

 Vector  161  Occ=0.000000D+00  E= 4.334580D-01
              MO Center= -2.8D-02,  2.1D+00, -5.6D-01, r^2= 1.9D+01
   Bfn.  Coefficient  Atom+Function         Bfn.  Coefficient  Atom+Function  
  ----- ------------  ---------------      ----- ------------  ---------------
   480     18.250250  29 C  s               226    -12.262264  15 C  s         
   387    -10.656891  24 C  s               174     10.357694  11 C  s         
   530     -9.899693  31 N  s               437      5.514878  26 N  s         
   276     -5.104415  17 N  s               310      5.034914  19 C  s         
   173      4.469564  11 C  s                45     -3.851545   4 H  s         

 Vector  162  Occ=0.000000D+00  E= 4.348414D-01
              MO Center=  2.2D-01,  1.3D+00,  1.8D-01, r^2= 2.1D+01
   Bfn.  Coefficient  Atom+Function         Bfn.  Coefficient  Atom+Function  
  ----- ------------  ---------------      ----- ------------  ---------------
   480     24.685812  29 C  s               226    -13.559880  15 C  s         
   530    -13.288352  31 N  s               284     11.620875  17 N  py        
   310      9.050781  19 C  s               317     -8.148753  19 C  px        
    12      6.442149   2 C  s               233     -5.653820  15 C  px        
   300     -5.279425  18 H  s               234      4.993333  15 C  py        

 Vector  163  Occ=0.000000D+00  E= 4.465740D-01
              MO Center=  1.3D-01, -1.1D+00, -8.7D-02, r^2= 2.0D+01
   Bfn.  Coefficient  Atom+Function         Bfn.  Coefficient  Atom+Function  
  ----- ------------  ---------------      ----- ------------  ---------------
   344     15.513612  21 C  s               318     11.115960  19 C  py        
   300     -8.433936  18 H  s               276     -8.230600  17 N  s         
   351      5.577613  21 C  px              343     -4.880173  21 C  s         
   333     -4.722499  20 H  s               114     -4.620062   7 N  py        
   489     -4.155603  29 C  pz              530     -3.938536  31 N  s         

 Vector  164  Occ=0.000000D+00  E= 4.507514D-01
              MO Center=  1.5D-01,  1.0D+00, -2.2D-01, r^2= 2.1D+01
   Bfn.  Coefficient  Atom+Function         Bfn.  Coefficient  Atom+Function  
  ----- ------------  ---------------      ----- ------------  ---------------
   480     10.422234  29 C  s               344      9.587418  21 C  s         
   387     -7.829347  24 C  s               284      7.223224  17 N  py        
   283     -6.667688  17 N  px              367     -5.792872  22 H  s         
   276     -5.548524  17 N  s               106      5.043561   7 N  s         
     2      4.834328   1 H  s               317     -4.852907  19 C  px        

 Vector  165  Occ=0.000000D+00  E= 4.528634D-01
              MO Center=  4.1D-01,  2.2D+00, -4.7D-01, r^2= 1.9D+01
   Bfn.  Coefficient  Atom+Function         Bfn.  Coefficient  Atom+Function  
  ----- ------------  ---------------      ----- ------------  ---------------
   480     10.319104  29 C  s               530     -9.939230  31 N  s         
    56      8.284939   5 C  s               234     -7.312444  15 C  py        
    13      6.814788   2 C  s                81     -6.469321   6 O  s         
   226     -6.484445  15 C  s               149      5.836478   9 C  pz        
    64     -5.556480   5 C  py              344     -5.429903  21 C  s         

 Vector  166  Occ=0.000000D+00  E= 4.554469D-01
              MO Center=  6.1D-01, -1.2D-01,  2.8D-01, r^2= 1.8D+01
   Bfn.  Coefficient  Atom+Function         Bfn.  Coefficient  Atom+Function  
  ----- ------------  ---------------      ----- ------------  ---------------
   234     10.472878  15 C  py              300      7.467469  18 H  s         
   149     -6.029175   9 C  pz              318      5.544447  19 C  py        
   488     -5.560213  29 C  py              530      5.502650  31 N  s         
    56     -5.142562   5 C  s               276      5.123608  17 N  s         
   387      4.109108  24 C  s                13     -3.919245   2 C  s         

 Vector  167  Occ=0.000000D+00  E= 4.579790D-01
              MO Center= -8.5D-01,  1.0D+00,  4.3D-01, r^2= 1.9D+01
   Bfn.  Coefficient  Atom+Function         Bfn.  Coefficient  Atom+Function  
  ----- ------------  ---------------      ----- ------------  ---------------
   174     15.454736  11 C  s               173     10.457269  11 C  s         
   206    -10.300338  13 H  s               387     -9.943554  24 C  s         
    56     -8.451102   5 C  s               226      8.442740  15 C  s         
   215     -7.889345  14 H  s               310      7.867051  19 C  s         
   300     -7.775356  18 H  s               147      7.121731   9 C  px        

 Vector  168  Occ=0.000000D+00  E= 4.600619D-01
              MO Center= -3.0D-01, -7.4D-01, -7.7D-02, r^2= 1.9D+01
   Bfn.  Coefficient  Atom+Function         Bfn.  Coefficient  Atom+Function  
  ----- ------------  ---------------      ----- ------------  ---------------
   318     19.728670  19 C  py              387     16.431006  24 C  s         
   344     15.330290  21 C  s               276    -13.276408  17 N  s         
   174    -11.934619  11 C  s               488     -9.008169  29 C  py        
   310     -8.836101  19 C  s               300     -7.534467  18 H  s         
   530      6.936693  31 N  s               351      6.568773  21 C  px        

 Vector  169  Occ=0.000000D+00  E= 4.742843D-01
              MO Center= -7.8D-01, -5.6D-01, -4.2D-01, r^2= 1.9D+01
   Bfn.  Coefficient  Atom+Function         Bfn.  Coefficient  Atom+Function  
  ----- ------------  ---------------      ----- ------------  ---------------
   344     14.283938  21 C  s               387     -9.770896  24 C  s         
   276     -7.727353  17 N  s               343      6.437540  21 C  s         
   284      6.353543  17 N  py              367     -6.158565  22 H  s         
   530     -5.700796  31 N  s               480      4.666939  29 C  s         
   437      4.622509  26 N  s               114     -4.471094   7 N  py        

 Vector  170  Occ=0.000000D+00  E= 4.781802D-01
              MO Center= -4.3D-01,  2.7D-01,  5.1D-02, r^2= 1.8D+01
   Bfn.  Coefficient  Atom+Function         Bfn.  Coefficient  Atom+Function  
  ----- ------------  ---------------      ----- ------------  ---------------
   480    -19.254481  29 C  s               387     19.136268  24 C  s         
   226     14.588022  15 C  s               174     13.901560  11 C  s         
   234    -12.005433  15 C  py               56     -9.258438   5 C  s         
   317      9.259978  19 C  px              147      9.175749   9 C  px        
   300     -9.177910  18 H  s               437     -8.727178  26 N  s         

 Vector  171  Occ=0.000000D+00  E= 4.799855D-01
              MO Center=  9.5D-02,  5.3D-01,  1.6D-01, r^2= 1.8D+01
   Bfn.  Coefficient  Atom+Function         Bfn.  Coefficient  Atom+Function  
  ----- ------------  ---------------      ----- ------------  ---------------
   174     22.057292  11 C  s               234    -13.674830  15 C  py        
   387    -10.470989  24 C  s               318     -9.531615  19 C  py        
   147      9.004514   9 C  px              276     -7.870265  17 N  s         
   300     -6.971046  18 H  s               225      5.747191  15 C  s         
   226     -5.736701  15 C  s                56     -5.479869   5 C  s         

 Vector  172  Occ=0.000000D+00  E= 4.848692D-01
              MO Center=  2.5D-01,  2.3D-01,  2.0D-01, r^2= 1.8D+01
   Bfn.  Coefficient  Atom+Function         Bfn.  Coefficient  Atom+Function  
  ----- ------------  ---------------      ----- ------------  ---------------
   234    -10.859442  15 C  py              174     10.162059  11 C  s         
    12     -6.347870   2 C  s               233      6.174545  15 C  px        
   226      5.809400  15 C  s               149      5.724948   9 C  pz        
   530      5.274373  31 N  s               300      5.226013  18 H  s         
   480     -5.251887  29 C  s                56     -5.105510   5 C  s         

 Vector  173  Occ=0.000000D+00  E= 4.887583D-01
              MO Center= -2.9D-02,  3.5D-01,  2.3D-01, r^2= 1.8D+01
   Bfn.  Coefficient  Atom+Function         Bfn.  Coefficient  Atom+Function  
  ----- ------------  ---------------      ----- ------------  ---------------
   106     13.077848   7 N  s               387     12.899453  24 C  s         
   344    -12.669673  21 C  s               148    -11.708710   9 C  py        
   233     10.204725  15 C  px              113     -8.249382   7 N  px        
   251     -7.232041  16 O  s               343     -6.999050  21 C  s         
   310     -6.807260  19 C  s                56      6.691827   5 C  s         

 Vector  174  Occ=0.000000D+00  E= 4.922793D-01
              MO Center= -2.7D-01,  1.2D-01, -4.9D-01, r^2= 2.0D+01
   Bfn.  Coefficient  Atom+Function         Bfn.  Coefficient  Atom+Function  
  ----- ------------  ---------------      ----- ------------  ---------------
   480    -15.154378  29 C  s               344     14.587860  21 C  s         
   174    -12.368375  11 C  s               387    -12.150555  24 C  s         
   318     10.599197  19 C  py              226      9.537125  15 C  s         
   233     -9.028491  15 C  px              300      9.019236  18 H  s         
   149     -7.597179   9 C  pz              234      7.446838  15 C  py        

 Vector  175  Occ=0.000000D+00  E= 4.966535D-01
              MO Center= -2.3D-01,  1.2D+00, -8.0D-03, r^2= 2.0D+01
   Bfn.  Coefficient  Atom+Function         Bfn.  Coefficient  Atom+Function  
  ----- ------------  ---------------      ----- ------------  ---------------
   344     24.040810  21 C  s               480    -11.399339  29 C  s         
    56    -11.190610   5 C  s               226     10.908844  15 C  s         
   318     10.378161  19 C  py              234      9.500706  15 C  py        
   113      8.705558   7 N  px              276     -8.589930  17 N  s         
   114      8.504262   7 N  py               12      7.305845   2 C  s         

 Vector  176  Occ=0.000000D+00  E= 4.986452D-01
              MO Center=  2.0D-01,  3.1D-01, -2.6D-01, r^2= 2.1D+01
   Bfn.  Coefficient  Atom+Function         Bfn.  Coefficient  Atom+Function  
  ----- ------------  ---------------      ----- ------------  ---------------
   106      7.690592   7 N  s                12      6.830161   2 C  s         
   174     -6.764329  11 C  s               173      6.703916  11 C  s         
   387      6.416396  24 C  s               197     -5.550656  12 H  s         
    56      5.314815   5 C  s               412     -4.976273  25 O  s         
   300     -4.933606  18 H  s                81     -4.621025   6 O  s         

 Vector  177  Occ=0.000000D+00  E= 5.028898D-01
              MO Center=  3.4D-02, -6.9D-01, -1.6D-01, r^2= 2.0D+01
   Bfn.  Coefficient  Atom+Function         Bfn.  Coefficient  Atom+Function  
  ----- ------------  ---------------      ----- ------------  ---------------
   344     34.214298  21 C  s               174    -17.570547  11 C  s         
   226     12.760933  15 C  s               376    -12.410170  23 H  s         
   480    -11.983985  29 C  s               367    -11.658587  22 H  s         
   343     11.219472  21 C  s               437    -10.874562  26 N  s         
   318      8.937518  19 C  py              215      8.379457  14 H  s         


 center of mass
 --------------
 x =   0.03141079 y =  -0.06508075 z =   0.02178599

 moments of inertia (a.u.)
 ------------------
        6115.744721802457           0.000000000001           0.000000000000
           0.000000000001        2365.713000340371           0.000000000003
           0.000000000000           0.000000000003        6814.728989853164

  Mulliken analysis of the total density
  --------------------------------------

    Atom       Charge   Shell Charges
 -----------   ------   -------------------------------------------------------
    1 H    1     0.90   0.76  0.17 -0.01  0.03 -0.06
    2 C    6     6.01   2.01  0.66  0.18 -0.05  2.07  0.99  0.02  0.06  0.07
    3 H    1     0.89   0.76  0.16 -0.01  0.03 -0.06
    4 H    1     1.02   0.76  0.26  0.01  0.03 -0.04
    5 C    6     5.21   2.01  0.68  0.10 -0.01  1.89  0.30  0.05  0.24 -0.04
    6 O    8     8.74   2.01  0.81  0.99  0.14  2.80  1.87  0.12  0.02 -0.01
    7 N    7     7.58   2.01  0.72  0.82 -0.08  2.45  1.43  0.12  0.05  0.06
    8 H    1     1.04   0.77  0.25 -0.01  0.05 -0.02
    9 C    6     6.67   2.01  0.66 -0.02 -0.01  1.99  1.67 -0.00  0.14  0.24
   10 H    1     0.98   0.78  0.19  0.00  0.03 -0.03
   11 C    6     5.86   2.01  0.66  0.47  0.26  2.05  0.43 -0.08  0.07 -0.00
   12 H    1     0.73   0.77  0.03  0.02  0.03 -0.11
   13 H    1     0.72   0.77  0.02  0.01  0.03 -0.12
   14 H    1     1.08   0.78  0.32  0.03  0.03 -0.08
   15 C    6     4.71   2.01  0.68 -0.01  0.00  1.89  0.21 -0.00  0.24 -0.30
   16 O    8     8.86   2.01  0.82  1.04  0.19  2.79  1.86  0.15  0.01 -0.01
   17 N    7     7.50   2.01  0.72  0.78 -0.08  2.45  1.42  0.11  0.05  0.03
   18 H    1     0.99   0.75  0.26 -0.02  0.06 -0.06
   19 C    6     6.23   2.01  0.66 -0.00  0.01  1.99  1.31  0.04  0.14  0.08
   20 H    1     1.01   0.77  0.22 -0.00  0.03 -0.01
   21 C    6     6.57   2.01  0.66  0.85  0.03  2.06  0.75 -0.03  0.09  0.15
   22 H    1     0.89   0.77  0.16 -0.00  0.03 -0.07
   23 H    1     0.88   0.77  0.16 -0.01  0.03 -0.08
   24 C    6     4.57   2.01  0.68  0.01  0.03  1.91 -0.19  0.00  0.24 -0.13
   25 O    8     8.83   2.01  0.82  1.02  0.19  2.80  1.84  0.14  0.02 -0.00
   26 N    7     7.17   2.01  0.72  0.75 -0.16  2.47  1.25  0.11  0.04 -0.02
   27 H    1     1.01   0.76  0.23 -0.01  0.05 -0.02
   28 H    1     0.90   0.74  0.17 -0.01  0.06 -0.05
   29 C    6     4.45   2.01  0.68  0.05 -0.01  1.88 -0.16 -0.06  0.23 -0.18
   30 O    8     8.90   2.01  0.82  1.05  0.19  2.80  1.87  0.16  0.01  0.00
   31 N    7     7.23   2.01  0.72  0.85 -0.20  2.46  1.24  0.11  0.04 -0.00
   32 H    1     1.04   0.76  0.25  0.00  0.05 -0.03
   33 H    1     0.85   0.73  0.23 -0.04  0.06 -0.13

       Multipole analysis of the density wrt the origin
       ------------------------------------------------

     L   x y z        total         open         nuclear
     -   - - -        -----         ----         -------
     0   0 0 0     -0.000000      0.000000    130.000000

     1   1 0 0     -0.828555      0.000000     -0.000000
     1   0 1 0      1.777773      0.000000      0.000000
     1   0 0 1     -0.206103      0.000000      0.000000

     2   2 0 0    -80.976303      0.000000    849.990574
     2   1 1 0     -3.252837      0.000000     -2.274688
     2   1 0 1     -7.734186      0.000000    -12.224388
     2   0 2 0    -59.113306      0.000000   2905.986090
     2   0 1 1     -0.902557      0.000000    -19.639455
     2   0 0 2    -77.761544      0.000000    461.949825


 Task  times  cpu:     4389.8s     wall:     4634.7s


                                NWChem Input Module
                                -------------------


 Summary of allocated global arrays
-----------------------------------
  No active global arrays


MA_summarize_allocated_blocks: starting scan ...
MA_summarize_allocated_blocks: scan completed: 0 heap blocks, 0 stack blocks
MA usage statistics:

	allocation statistics:
					      heap	     stack
					      ----	     -----
	current number of blocks	         0	         0
	maximum number of blocks	        16	        14
	current total bytes		         0	         0
	maximum total bytes		    119944	  26741416
	maximum total K-bytes		       120	     26742
	maximum total M-bytes		         1	        27


                                     CITATION
                                     --------
                Please cite the following reference when publishing
                           results obtained with NWChem:

          E. Apra, E. J. Bylaska, W. A. de Jong, N. Govind, K. Kowalski,
       T. P. Straatsma, M. Valiev, H. J. J. van Dam, Y. Alexeev, J. Anchell,
       V. Anisimov, F. W. Aquino, R. Atta-Fynn, J. Autschbach, N. P. Bauman,
     J. C. Becca, D. E. Bernholdt, K. Bhaskaran-Nair, S. Bogatko, P. Borowski,
         J. Boschen, J. Brabec, A. Bruner, E. Cauet, Y. Chen, G. N. Chuev,
      C. J. Cramer, J. Daily, M. J. O. Deegan, T. H. Dunning Jr., M. Dupuis,
   K. G. Dyall, G. I. Fann, S. A. Fischer, A. Fonari, H. Fruchtl, L. Gagliardi,
      J. Garza, N. Gawande, S. Ghosh, K. Glaesemann, A. W. Gotz, J. Hammond,
       V. Helms, E. D. Hermes, K. Hirao, S. Hirata, M. Jacquelin, L. Jensen,
   B. G. Johnson, H. Jonsson, R. A. Kendall, M. Klemm, R. Kobayashi, V. Konkov,
      S. Krishnamoorthy, M. Krishnan, Z. Lin, R. D. Lins, R. J. Littlefield,
      A. J. Logsdail, K. Lopata, W. Ma, A. V. Marenich, J. Martin del Campo,
   D. Mejia-Rodriguez, J. E. Moore, J. M. Mullin, T. Nakajima, D. R. Nascimento,
    J. A. Nichols, P. J. Nichols, J. Nieplocha, A. Otero-de-la-Roza, B. Palmer,
    A. Panyala, T. Pirojsirikul, B. Peng, R. Peverati, J. Pittner, L. Pollack,
   R. M. Richard, P. Sadayappan, G. C. Schatz, W. A. Shelton, D. W. Silverstein,
   D. M. A. Smith, T. A. Soares, D. Song, M. Swart, H. L. Taylor, G. S. Thomas,
            V. Tipparaju, D. G. Truhlar, K. Tsemekhman, T. Van Voorhis,
      A. Vazquez-Mayagoitia, P. Verma, O. Villa, A. Vishnu, K. D. Vogiatzis,
        D. Wang, J. H. Weare, M. J. Williamson, T. L. Windus, K. Wolinski,
        A. T. Wong, Q. Wu, C. Yang, Q. Yu, M. Zacharias, Z. Zhang, Y. Zhao,
                                and R. J. Harrison
                        "NWChem: Past, present, and future
                         J. Chem. Phys. 152, 184102 (2020)
                               doi:10.1063/5.0004997

                                      AUTHORS
                                      -------
  E. Apra, E. J. Bylaska, N. Govind, K. Kowalski, M. Valiev, D. Mejia-Rodriguez,
       A. Kunitsa, N. P. Bauman, A. Panyala, W. A. de Jong, T. P. Straatsma,
   H. J. J. van Dam, D. Wang, T. L. Windus, J. Hammond, J. Autschbach, A. Woods,
    K. Bhaskaran-Nair, J. Brabec, K. Lopata, S. A. Fischer, S. Krishnamoorthy,
     M. Jacquelin, W. Ma, M. Klemm, O. Villa, Y. Chen, V. Anisimov, F. Aquino,
     S. Hirata, M. T. Hackler, E. Hermes, L. Jensen, J. E. Moore, J. C. Becca,
      V. Konjkov, T. Risthaus, M. Malagoli, A. Marenich, A. Otero-de-la-Roza,
        J. Mullin, P. Nichols, R. Peverati, J. Pittner, Y. Zhao, P.-D. Fan,
        A. Fonari, M. J. Williamson, R. J. Harrison, J. R. Rehr, M. Dupuis,
     D. Silverstein, D. M. A. Smith, J. Nieplocha, V. Tipparaju, M. Krishnan,
     B. E. Van Kuiken, A. Vazquez-Mayagoitia, M. Swart, Q. Wu, T. Van Voorhis,
     A. A. Auer, M. Nooijen, L. D. Crosby, E. Brown, G. Cisneros, G. I. Fann,
   H. Fruchtl, J. Garza, K. Hirao, R. A. Kendall, J. A. Nichols, K. Tsemekhman,
    K. Wolinski, J. Anchell, D. E. Bernholdt, P. Borowski, T. Clark, D. Clerc,
   H. Dachsel, M. J. O. Deegan, K. Dyall, D. Elwood, E. Glendening, M. Gutowski,
   A. C. Hess, J. Jaffe, B. G. Johnson, J. Ju, R. Kobayashi, R. Kutteh, Z. Lin,
   R. Littlefield, X. Long, B. Meng, T. Nakajima, S. Niu, L. Pollack, M. Rosing,
   K. Glaesemann, G. Sandrone, M. Stave, H. Taylor, G. Thomas, J. H. van Lenthe,
                               A. T. Wong, Z. Zhang.

 Total times  cpu:     4389.9s     wall:     4634.9s
