export TMOUT=5400
export TMPDIR=/tmp
export PTMPDIR=/tmp/ptmp
 argument  1 = ALA_LEU_1.nw
                                         
                                         


             Northwest Computational Chemistry Package (NWChem) 7.2.0
             --------------------------------------------------------


                    Environmental Molecular Sciences Laboratory
                       Pacific Northwest National Laboratory
                                Richland, WA 99352

                              Copyright (c) 1994-2022
                       Pacific Northwest National Laboratory
                            Battelle Memorial Institute

             NWChem is an open-source computational chemistry package
                        distributed under the terms of the
                      Educational Community License (ECL) 2.0
             A copy of the license is included with this distribution
                              in the LICENSE.TXT file

                                  ACKNOWLEDGMENT
                                  --------------

            This software and its documentation were developed at the
            EMSL at Pacific Northwest National Laboratory, a multiprogram
            national laboratory, operated for the U.S. Department of Energy
            by Battelle under Contract Number DE-AC05-76RL01830. Support
            for this work was provided by the Department of Energy Office
            of Biological and Environmental Research, Office of Basic
            Energy Sciences, and the Office of Advanced Scientific Computing.


           Job information
           ---------------

    hostname        = nova18-22
    program         = /opt/rit/el9/20230413/app/linux-rhel9-x86_64_v3/gcc-11.2.1/nwchem-7.2.0-oxtctbuhfuzyfaoziquq6bki22grib3g/bin/nwchem
    date            = Fri Jun 27 13:22:55 2025

    compiled        = Wed_May_17_23:46:39_2023
    source          = /tmp/root/spack-stage/spack-stage-nwchem-7.2.0-oxtctbuhfuzyfaoziquq6bki22grib3g/spack-src
    nwchem branch   = 7.2.0
    nwchem revision = d0d141fd
    ga revision     = 5.8.0
    use scalapack   = T
    input           = ALA_LEU_1.nw
    prefix          = ALA_LEU_1.
    data base       = ./ALA_LEU_1.db
    status          = startup
    nproc           =        8
    time left       =     -1s



           Memory information
           ------------------

    heap     =   26214398 doubles =    200.0 Mbytes
    stack    =   26214395 doubles =    200.0 Mbytes
    global   =   52428800 doubles =    400.0 Mbytes (distinct from heap & stack)
    total    =  104857593 doubles =    800.0 Mbytes
    verify   = yes
    hardfail = no 


           Directory information
           ---------------------

  0 permanent = .
  0 scratch   = .




                                NWChem Input Module
                                -------------------



 Scaling coordinates for geometry "geometry" by  1.889725989
 (inverse scale =  0.529177249)

 C1  symmetry detected

          ------
          auto-z
          ------
  no constraints, skipping    0.0000000000000000     
  no constraints, skipping    0.0000000000000000     


                             Geometry "geometry" -> ""
                             -------------------------

 Output coordinates in angstroms (scale by  1.889725989 to convert to a.u.)

  No.       Tag          Charge          X              Y              Z
 ---- ---------------- ---------- -------------- -------------- --------------
    1 H                    1.0000    -2.05086703    -4.29976035     0.62458649
    2 C                    6.0000    -2.23805696    -3.23007399     0.55306018
    3 H                    1.0000    -2.96420552    -2.93653904     1.31082366
    4 H                    1.0000    -2.62626444    -2.98523115    -0.43403705
    5 C                    6.0000    -0.95220199    -2.47686422     0.79012142
    6 O                    8.0000    -0.86402652    -1.68251964     1.71596254
    7 N                    7.0000     0.04566851    -2.71123328    -0.06119734
    8 H                    1.0000    -0.11801327    -3.36917493    -0.80458288
    9 C                    6.0000     1.38238819    -2.11044971     0.02103162
   10 H                    1.0000     1.68954642    -2.12663378     1.06792172
   11 C                    6.0000     2.35358241    -3.01053129    -0.75937721
   12 H                    1.0000     2.09384719    -3.01221929    -1.81929219
   13 H                    1.0000     3.37121366    -2.63489802    -0.64730006
   14 H                    1.0000     2.31221918    -4.02939755    -0.37183544
   15 C                    6.0000     1.43220176    -0.62484793    -0.42215679
   16 O                    8.0000     2.25145273    -0.24058319    -1.25635009
   17 N                    7.0000     0.54211483     0.21651647     0.11439162
   18 H                    1.0000    -0.08669266    -0.16864999     0.81280765
   19 C                    6.0000     0.41279906     1.64963468    -0.19296911
   20 H                    1.0000     0.57034450     1.78498070    -1.26435274
   21 C                    6.0000    -1.02176967     2.12878585     0.13524988
   22 H                    1.0000    -1.30224585     1.78277084     1.13195682
   23 H                    1.0000    -1.00723762     3.21885730     0.16191567
   24 C                    6.0000    -2.11179941     1.73352626    -0.88198708
   25 H                    1.0000    -1.79983053     2.05369930    -1.87659587
   26 C                    6.0000    -2.42581277     0.23610806    -0.92732282
   27 H                    1.0000    -3.28199522     0.05778609    -1.57775259
   28 H                    1.0000    -1.57660933    -0.30727385    -1.33614506
   29 H                    1.0000    -2.65500820    -0.12340333     0.07522644
   30 C                    6.0000    -3.41263339     2.46192205    -0.53598775
   31 H                    1.0000    -4.17763412     2.23014156    -1.27651236
   32 H                    1.0000    -3.76030899     2.15646550     0.45137843
   33 H                    1.0000    -3.24532536     3.53899567    -0.53754532
   34 C                    6.0000     1.50949780     2.49051055     0.50473904
   35 O                    8.0000     1.24099120     3.43047449     1.24182925
   36 N                    7.0000     2.77472989     2.14785270     0.30812428
   37 H                    1.0000     2.98634411     1.37103576    -0.30326665
   38 H                    1.0000     3.49462101     2.68120223     0.76542947

      Atomic Mass 
      ----------- 

      H                  1.007825
      C                 12.000000
      O                 15.994910
      N                 14.003070


 Effective nuclear repulsion energy (a.u.)    1335.8887183977

            Nuclear Dipole moment (a.u.) 
            ----------------------------
        X                 Y               Z
 ---------------- ---------------- ----------------
    -0.0000000000     0.0000000000    -0.0000000000



                                Z-matrix (autoz)
                                -------- 

 Units are Angstrom for bonds and degrees for angles

      Type          Name      I     J     K     L     M      Value
      ----------- --------  ----- ----- ----- ----- ----- ----------
    1 Stretch                  1     2                       1.08829
    2 Stretch                  2     3                       1.08980
    3 Stretch                  2     4                       1.08858
    4 Stretch                  2     5                       1.50896
    5 Stretch                  5     6                       1.22309
    6 Stretch                  5     7                       1.33245
    7 Stretch                  7     8                       1.00613
    8 Stretch                  7     9                       1.46783
    9 Stretch                  9    10                       1.09114
   10 Stretch                  9    11                       1.53701
   11 Stretch                  9    15                       1.55110
   12 Stretch                 11    12                       1.09128
   13 Stretch                 11    13                       1.09052
   14 Stretch                 11    14                       1.09087
   15 Stretch                 15    16                       1.23074
   16 Stretch                 15    17                       1.33717
   17 Stretch                 17    18                       1.01565
   18 Stretch                 17    19                       1.47140
   19 Stretch                 19    20                       1.09133
   20 Stretch                 19    21                       1.54768
   21 Stretch                 19    34                       1.54810
   22 Stretch                 21    22                       1.09170
   23 Stretch                 21    23                       1.09049
   24 Stretch                 21    24                       1.54245
   25 Stretch                 24    25                       1.09045
   26 Stretch                 24    26                       1.53066
   27 Stretch                 24    30                       1.53050
   28 Stretch                 26    27                       1.08991
   29 Stretch                 26    28                       1.08791
   30 Stretch                 26    29                       1.08944
   31 Stretch                 30    31                       1.08964
   32 Stretch                 30    32                       1.09045
   33 Stretch                 30    33                       1.08999
   34 Stretch                 34    35                       1.22431
   35 Stretch                 34    36                       1.32548
   36 Stretch                 36    37                       1.01095
   37 Stretch                 36    38                       1.00590
   38 Bend                     1     2     3               109.49057
   39 Bend                     1     2     4               109.99928
   40 Bend                     1     2     5               109.49517
   41 Bend                     2     5     6               120.30082
   42 Bend                     2     5     7               116.74371
   43 Bend                     3     2     4               109.40846
   44 Bend                     3     2     5               108.91193
   45 Bend                     4     2     5               109.51643
   46 Bend                     5     7     8               117.72656
   47 Bend                     5     7     9               125.04510
   48 Bend                     6     5     7               122.94847
   49 Bend                     7     9    10               107.70017
   50 Bend                     7     9    11               107.89653
   51 Bend                     7     9    15               113.90725
   52 Bend                     8     7     9               117.20652
   53 Bend                     9    11    12               110.10040
   54 Bend                     9    11    13               109.61765
   55 Bend                     9    11    14               110.03616
   56 Bend                     9    15    16               120.93611
   57 Bend                     9    15    17               117.81482
   58 Bend                    10     9    11               107.49330
   59 Bend                    10     9    15               106.21864
   60 Bend                    11     9    15               113.29772
   61 Bend                    12    11    13               108.81147
   62 Bend                    12    11    14               109.54709
   63 Bend                    13    11    14               108.69863
   64 Bend                    15    17    18               116.70680
   65 Bend                    15    17    19               125.98145
   66 Bend                    16    15    17               121.23918
   67 Bend                    17    19    20               108.25080
   68 Bend                    17    19    21               109.79784
   69 Bend                    17    19    34               111.87792
   70 Bend                    18    17    19               117.29671
   71 Bend                    19    21    22               109.48941
   72 Bend                    19    21    23               107.59625
   73 Bend                    19    21    24               115.83905
   74 Bend                    19    34    35               122.20742
   75 Bend                    19    34    36               117.96600
   76 Bend                    20    19    21               107.67462
   77 Bend                    20    19    34               105.83205
   78 Bend                    21    19    34               113.13532
   79 Bend                    21    24    25               108.91176
   80 Bend                    21    24    26               114.53174
   81 Bend                    21    24    30               109.24401
   82 Bend                    22    21    23               107.33302
   83 Bend                    22    21    24               109.83587
   84 Bend                    23    21    24               106.36158
   85 Bend                    24    26    27               109.80920
   86 Bend                    24    26    28               109.85377
   87 Bend                    24    26    29               109.79964
   88 Bend                    24    30    31               109.98907
   89 Bend                    24    30    32               110.02170
   90 Bend                    24    30    33               109.84606
   91 Bend                    25    24    26               108.59732
   92 Bend                    25    24    30               108.03647
   93 Bend                    26    24    30               107.33241
   94 Bend                    27    26    28               107.89116
   95 Bend                    27    26    29               109.26395
   96 Bend                    28    26    29               110.19453
   97 Bend                    31    30    32               109.38591
   98 Bend                    31    30    33               108.48058
   99 Bend                    32    30    33               109.08888
  100 Bend                    34    36    37               119.21980
  101 Bend                    34    36    38               118.59623
  102 Bend                    35    34    36               119.81008
  103 Bend                    37    36    38               122.17854
  104 Torsion                  1     2     5     6        -120.07155
  105 Torsion                  1     2     5     7          60.86315
  106 Torsion                  2     5     7     8           0.09868
  107 Torsion                  2     5     7     9        -178.14966
  108 Torsion                  3     2     5     6          -0.37331
  109 Torsion                  3     2     5     7        -179.43862
  110 Torsion                  4     2     5     6         119.23769
  111 Torsion                  4     2     5     7         -59.82762
  112 Torsion                  5     7     9    10          42.59495
  113 Torsion                  5     7     9    11         158.35699
  114 Torsion                  5     7     9    15         -74.93234
  115 Torsion                  6     5     7     8        -178.93964
  116 Torsion                  6     5     7     9           2.81202
  117 Torsion                  7     9    11    12          65.01914
  118 Torsion                  7     9    11    13        -175.31330
  119 Torsion                  7     9    11    14         -55.82426
  120 Torsion                  7     9    15    16        -128.45747
  121 Torsion                  7     9    15    17          50.41202
  122 Torsion                  8     7     9    10        -135.66165
  123 Torsion                  8     7     9    11         -19.89960
  124 Torsion                  8     7     9    15         106.81107
  125 Torsion                  9    15    17    18           2.59859
  126 Torsion                  9    15    17    19        -178.85678
  127 Torsion                 10     9    11    12        -179.08328
  128 Torsion                 10     9    11    13         -59.41572
  129 Torsion                 10     9    11    14          60.07333
  130 Torsion                 10     9    15    16         113.16382
  131 Torsion                 10     9    15    17         -67.96670
  132 Torsion                 11     9    15    16          -4.61784
  133 Torsion                 11     9    15    17         174.25164
  134 Torsion                 12    11     9    15         -62.04640
  135 Torsion                 13    11     9    15          57.62116
  136 Torsion                 14    11     9    15         177.11021
  137 Torsion                 15    17    19    20          39.14865
  138 Torsion                 15    17    19    21         156.43807
  139 Torsion                 15    17    19    34         -77.08176
  140 Torsion                 16    15    17    18        -178.53554
  141 Torsion                 16    15    17    19           0.00909
  142 Torsion                 17    19    21    22          48.31813
  143 Torsion                 17    19    21    23         164.66389
  144 Torsion                 17    19    21    24         -76.52423
  145 Torsion                 17    19    34    35        -124.31852
  146 Torsion                 17    19    34    36          54.19998
  147 Torsion                 18    17    19    20        -142.31437
  148 Torsion                 18    17    19    21         -25.02495
  149 Torsion                 18    17    19    34         101.45522
  150 Torsion                 19    21    24    25         -53.28854
  151 Torsion                 19    21    24    26          68.50950
  152 Torsion                 19    21    24    30        -171.08054
  153 Torsion                 19    34    36    37           1.52567
  154 Torsion                 19    34    36    38        -179.30323
  155 Torsion                 20    19    21    22         165.96685
  156 Torsion                 20    19    21    23         -77.68738
  157 Torsion                 20    19    21    24          41.12449
  158 Torsion                 20    19    34    35         117.99330
  159 Torsion                 20    19    34    36         -63.48821
  160 Torsion                 21    19    34    35           0.32556
  161 Torsion                 21    19    34    36         178.84406
  162 Torsion                 21    24    26    27         173.22695
  163 Torsion                 21    24    26    28         -68.26841
  164 Torsion                 21    24    26    29          53.06917
  165 Torsion                 21    24    30    31         177.17760
  166 Torsion                 21    24    30    32         -62.25985
  167 Torsion                 21    24    30    33          57.84418
  168 Torsion                 22    21    19    34         -77.44816
  169 Torsion                 22    21    24    25        -177.95247
  170 Torsion                 22    21    24    26         -56.15442
  171 Torsion                 22    21    24    30          64.25553
  172 Torsion                 23    21    19    34          38.89760
  173 Torsion                 23    21    24    25          66.19927
  174 Torsion                 23    21    24    26        -172.00269
  175 Torsion                 23    21    24    30         -51.59273
  176 Torsion                 24    21    19    34         157.70948
  177 Torsion                 25    24    26    27         -64.80338
  178 Torsion                 25    24    26    28          53.70126
  179 Torsion                 25    24    26    29         175.03884
  180 Torsion                 25    24    30    31          58.83715
  181 Torsion                 25    24    30    32         179.39970
  182 Torsion                 25    24    30    33         -60.49627
  183 Torsion                 26    24    30    31         -58.09745
  184 Torsion                 26    24    30    32          62.46511
  185 Torsion                 26    24    30    33        -177.43086
  186 Torsion                 27    26    24    30          51.76287
  187 Torsion                 28    26    24    30         170.26750
  188 Torsion                 29    26    24    30         -68.39492
  189 Torsion                 35    34    36    37        -179.91903
  190 Torsion                 35    34    36    38          -0.74793


            XYZ format geometry
            -------------------
    38
 geometry
 H                    -2.05086703    -4.29976035     0.62458649
 C                    -2.23805696    -3.23007399     0.55306018
 H                    -2.96420552    -2.93653904     1.31082366
 H                    -2.62626444    -2.98523115    -0.43403705
 C                    -0.95220199    -2.47686422     0.79012142
 O                    -0.86402652    -1.68251964     1.71596254
 N                     0.04566851    -2.71123328    -0.06119734
 H                    -0.11801327    -3.36917493    -0.80458288
 C                     1.38238819    -2.11044971     0.02103162
 H                     1.68954642    -2.12663378     1.06792172
 C                     2.35358241    -3.01053129    -0.75937721
 H                     2.09384719    -3.01221929    -1.81929219
 H                     3.37121366    -2.63489802    -0.64730006
 H                     2.31221918    -4.02939755    -0.37183544
 C                     1.43220176    -0.62484793    -0.42215679
 O                     2.25145273    -0.24058319    -1.25635009
 N                     0.54211483     0.21651647     0.11439162
 H                    -0.08669266    -0.16864999     0.81280765
 C                     0.41279906     1.64963468    -0.19296911
 H                     0.57034450     1.78498070    -1.26435274
 C                    -1.02176967     2.12878585     0.13524988
 H                    -1.30224585     1.78277084     1.13195682
 H                    -1.00723762     3.21885730     0.16191567
 C                    -2.11179941     1.73352626    -0.88198708
 H                    -1.79983053     2.05369930    -1.87659587
 C                    -2.42581277     0.23610806    -0.92732282
 H                    -3.28199522     0.05778609    -1.57775259
 H                    -1.57660933    -0.30727385    -1.33614506
 H                    -2.65500820    -0.12340333     0.07522644
 C                    -3.41263339     2.46192205    -0.53598775
 H                    -4.17763412     2.23014156    -1.27651236
 H                    -3.76030899     2.15646550     0.45137843
 H                    -3.24532536     3.53899567    -0.53754532
 C                     1.50949780     2.49051055     0.50473904
 O                     1.24099120     3.43047449     1.24182925
 N                     2.77472989     2.14785270     0.30812428
 H                     2.98634411     1.37103576    -0.30326665
 H                     3.49462101     2.68120223     0.76542947

 ==============================================================================
                                internuclear distances
 ------------------------------------------------------------------------------
       center one      |      center two      | atomic units |  angstroms
 ------------------------------------------------------------------------------
    2 C                |   1 H                |     2.05658  |     1.08829
    3 H                |   2 C                |     2.05942  |     1.08980
    4 H                |   2 C                |     2.05712  |     1.08858
    5 C                |   2 C                |     2.85151  |     1.50896
    6 O                |   5 C                |     2.31130  |     1.22309
    7 N                |   5 C                |     2.51796  |     1.33245
    8 H                |   7 N                |     1.90131  |     1.00613
    9 C                |   7 N                |     2.77379  |     1.46783
   10 H                |   9 C                |     2.06196  |     1.09114
   11 C                |   9 C                |     2.90453  |     1.53701
   12 H                |  11 C                |     2.06221  |     1.09128
   13 H                |  11 C                |     2.06078  |     1.09052
   14 H                |  11 C                |     2.06144  |     1.09087
   15 C                |   9 C                |     2.93115  |     1.55110
   16 O                |  15 C                |     2.32575  |     1.23074
   17 N                |  15 C                |     2.52689  |     1.33717
   18 H                |  17 N                |     1.91929  |     1.01565
   19 C                |  17 N                |     2.78054  |     1.47140
   20 H                |  19 C                |     2.06232  |     1.09133
   21 C                |  19 C                |     2.92468  |     1.54768
   22 H                |  21 C                |     2.06302  |     1.09170
   23 H                |  21 C                |     2.06074  |     1.09049
   24 C                |  21 C                |     2.91482  |     1.54245
   25 H                |  24 C                |     2.06065  |     1.09045
   26 C                |  24 C                |     2.89253  |     1.53066
   27 H                |  26 C                |     2.05963  |     1.08991
   28 H                |  26 C                |     2.05585  |     1.08791
   29 H                |  26 C                |     2.05875  |     1.08944
   30 C                |  24 C                |     2.89223  |     1.53050
   31 H                |  30 C                |     2.05913  |     1.08964
   32 H                |  30 C                |     2.06065  |     1.09045
   33 H                |  30 C                |     2.05979  |     1.08999
   34 C                |  19 C                |     2.92549  |     1.54810
   35 O                |  34 C                |     2.31361  |     1.22431
   36 N                |  34 C                |     2.50478  |     1.32548
   37 H                |  36 N                |     1.91042  |     1.01095
   38 H                |  36 N                |     1.90087  |     1.00590
 ------------------------------------------------------------------------------
                         number of included internuclear distances:         37
 ==============================================================================



 ==============================================================================
                                 internuclear angles
 ------------------------------------------------------------------------------
        center 1       |       center 2       |       center 3       |  degrees
 ------------------------------------------------------------------------------
    1 H                |   2 C                |   3 H                |   109.49
    1 H                |   2 C                |   4 H                |   110.00
    1 H                |   2 C                |   5 C                |   109.50
    3 H                |   2 C                |   4 H                |   109.41
    3 H                |   2 C                |   5 C                |   108.91
    4 H                |   2 C                |   5 C                |   109.52
    2 C                |   5 C                |   6 O                |   120.30
    2 C                |   5 C                |   7 N                |   116.74
    6 O                |   5 C                |   7 N                |   122.95
    5 C                |   7 N                |   8 H                |   117.73
    5 C                |   7 N                |   9 C                |   125.05
    8 H                |   7 N                |   9 C                |   117.21
    7 N                |   9 C                |  10 H                |   107.70
    7 N                |   9 C                |  11 C                |   107.90
    7 N                |   9 C                |  15 C                |   113.91
   10 H                |   9 C                |  11 C                |   107.49
   10 H                |   9 C                |  15 C                |   106.22
   11 C                |   9 C                |  15 C                |   113.30
    9 C                |  11 C                |  12 H                |   110.10
    9 C                |  11 C                |  13 H                |   109.62
    9 C                |  11 C                |  14 H                |   110.04
   12 H                |  11 C                |  13 H                |   108.81
   12 H                |  11 C                |  14 H                |   109.55
   13 H                |  11 C                |  14 H                |   108.70
    9 C                |  15 C                |  16 O                |   120.94
    9 C                |  15 C                |  17 N                |   117.81
   16 O                |  15 C                |  17 N                |   121.24
   15 C                |  17 N                |  18 H                |   116.71
   15 C                |  17 N                |  19 C                |   125.98
   18 H                |  17 N                |  19 C                |   117.30
   17 N                |  19 C                |  20 H                |   108.25
   17 N                |  19 C                |  21 C                |   109.80
   17 N                |  19 C                |  34 C                |   111.88
   20 H                |  19 C                |  21 C                |   107.67
   20 H                |  19 C                |  34 C                |   105.83
   21 C                |  19 C                |  34 C                |   113.14
   19 C                |  21 C                |  22 H                |   109.49
   19 C                |  21 C                |  23 H                |   107.60
   19 C                |  21 C                |  24 C                |   115.84
   22 H                |  21 C                |  23 H                |   107.33
   22 H                |  21 C                |  24 C                |   109.84
   23 H                |  21 C                |  24 C                |   106.36
   21 C                |  24 C                |  25 H                |   108.91
   21 C                |  24 C                |  26 C                |   114.53
   21 C                |  24 C                |  30 C                |   109.24
   25 H                |  24 C                |  26 C                |   108.60
   25 H                |  24 C                |  30 C                |   108.04
   26 C                |  24 C                |  30 C                |   107.33
   24 C                |  26 C                |  27 H                |   109.81
   24 C                |  26 C                |  28 H                |   109.85
   24 C                |  26 C                |  29 H                |   109.80
   27 H                |  26 C                |  28 H                |   107.89
   27 H                |  26 C                |  29 H                |   109.26
   28 H                |  26 C                |  29 H                |   110.19
   24 C                |  30 C                |  31 H                |   109.99
   24 C                |  30 C                |  32 H                |   110.02
   24 C                |  30 C                |  33 H                |   109.85
   31 H                |  30 C                |  32 H                |   109.39
   31 H                |  30 C                |  33 H                |   108.48
   32 H                |  30 C                |  33 H                |   109.09
   19 C                |  34 C                |  35 O                |   122.21
   19 C                |  34 C                |  36 N                |   117.97
   35 O                |  34 C                |  36 N                |   119.81
   34 C                |  36 N                |  37 H                |   119.22
   34 C                |  36 N                |  38 H                |   118.60
   37 H                |  36 N                |  38 H                |   122.18
 ------------------------------------------------------------------------------
                            number of included internuclear angles:         66
 ==============================================================================



  library name resolved from: environment
  library file name is: </opt/rit/el9/20230413/app/linux-rhel9-x86_64_v3/gcc-11.2.1/nwchem-7.2.0-oxtctbuhfuzyfaoziquq6bki22grib3g/share/nwchem/libraries/>
  


 Summary of "ao basis" -> "" (cartesian)
 ------------------------------------------------------------------------------
       Tag                 Description            Shells   Functions and Types
 ---------------- ------------------------------  ------  ---------------------
 *                        aug-cc-pvdz                 on all atoms 


                      Basis "ao basis" -> "ao basis" (cartesian)
                      -----
  H (Hydrogen)
  ------------
            Exponent  Coefficients 
       -------------- ---------------------------------------------------------
  1 S  1.30100000E+01  0.019685
  1 S  1.96200000E+00  0.137977
  1 S  4.44600000E-01  0.478148

  2 S  1.22000000E-01  1.000000

  3 S  2.97400000E-02  1.000000

  4 P  7.27000000E-01  1.000000

  5 P  1.41000000E-01  1.000000

  C (Carbon)
  ----------
            Exponent  Coefficients 
       -------------- ---------------------------------------------------------
  1 S  6.66500000E+03  0.000692
  1 S  1.00000000E+03  0.005329
  1 S  2.28000000E+02  0.027077
  1 S  6.47100000E+01  0.101718
  1 S  2.10600000E+01  0.274740
  1 S  7.49500000E+00  0.448564
  1 S  2.79700000E+00  0.285074
  1 S  5.21500000E-01  0.015204

  2 S  6.66500000E+03 -0.000146
  2 S  1.00000000E+03 -0.001154
  2 S  2.28000000E+02 -0.005725
  2 S  6.47100000E+01 -0.023312
  2 S  2.10600000E+01 -0.063955
  2 S  7.49500000E+00 -0.149981
  2 S  2.79700000E+00 -0.127262
  2 S  5.21500000E-01  0.544529

  3 S  1.59600000E-01  1.000000

  4 S  4.69000000E-02  1.000000

  5 P  9.43900000E+00  0.038109
  5 P  2.00200000E+00  0.209480
  5 P  5.45600000E-01  0.508557

  6 P  1.51700000E-01  1.000000

  7 P  4.04100000E-02  1.000000

  8 D  5.50000000E-01  1.000000

  9 D  1.51000000E-01  1.000000

  O (Oxygen)
  ----------
            Exponent  Coefficients 
       -------------- ---------------------------------------------------------
  1 S  1.17200000E+04  0.000710
  1 S  1.75900000E+03  0.005470
  1 S  4.00800000E+02  0.027837
  1 S  1.13700000E+02  0.104800
  1 S  3.70300000E+01  0.283062
  1 S  1.32700000E+01  0.448719
  1 S  5.02500000E+00  0.270952
  1 S  1.01300000E+00  0.015458

  2 S  1.17200000E+04 -0.000160
  2 S  1.75900000E+03 -0.001263
  2 S  4.00800000E+02 -0.006267
  2 S  1.13700000E+02 -0.025716
  2 S  3.70300000E+01 -0.070924
  2 S  1.32700000E+01 -0.165411
  2 S  5.02500000E+00 -0.116955
  2 S  1.01300000E+00  0.557368

  3 S  3.02300000E-01  1.000000

  4 S  7.89600000E-02  1.000000

  5 P  1.77000000E+01  0.043018
  5 P  3.85400000E+00  0.228913
  5 P  1.04600000E+00  0.508728

  6 P  2.75300000E-01  1.000000

  7 P  6.85600000E-02  1.000000

  8 D  1.18500000E+00  1.000000

  9 D  3.32000000E-01  1.000000

  N (Nitrogen)
  ------------
            Exponent  Coefficients 
       -------------- ---------------------------------------------------------
  1 S  9.04600000E+03  0.000700
  1 S  1.35700000E+03  0.005389
  1 S  3.09300000E+02  0.027406
  1 S  8.77300000E+01  0.103207
  1 S  2.85600000E+01  0.278723
  1 S  1.02100000E+01  0.448540
  1 S  3.83800000E+00  0.278238
  1 S  7.46600000E-01  0.015440

  2 S  9.04600000E+03 -0.000153
  2 S  1.35700000E+03 -0.001208
  2 S  3.09300000E+02 -0.005992
  2 S  8.77300000E+01 -0.024544
  2 S  2.85600000E+01 -0.067459
  2 S  1.02100000E+01 -0.158078
  2 S  3.83800000E+00 -0.121831
  2 S  7.46600000E-01  0.549003

  3 S  2.24800000E-01  1.000000

  4 S  6.12400000E-02  1.000000

  5 P  1.35500000E+01  0.039919
  5 P  2.91700000E+00  0.217169
  5 P  7.97300000E-01  0.510319

  6 P  2.18500000E-01  1.000000

  7 P  5.61100000E-02  1.000000

  8 D  8.17000000E-01  1.000000

  9 D  2.30000000E-01  1.000000



 Summary of "ao basis" -> "ao basis" (cartesian)
 ------------------------------------------------------------------------------
       Tag                 Description            Shells   Functions and Types
 ---------------- ------------------------------  ------  ---------------------
 H                        aug-cc-pvdz                5        9   3s2p
 C                        aug-cc-pvdz                9       25   4s3p2d
 O                        aug-cc-pvdz                9       25   4s3p2d
 N                        aug-cc-pvdz                9       25   4s3p2d


                                 NWChem SCF Module
                                 -----------------



  ao basis        = "ao basis"
  functions       =   614
  atoms           =    38
  closed shells   =    66
  open shells     =     0
  charge          =   0.00
  wavefunction    = RHF 
  input vectors   = atomic
  output vectors  = ./ALA_LEU_1.movecs
  use symmetry    = F
  symmetry adapt  = F


 Summary of "ao basis" -> "ao basis" (cartesian)
 ------------------------------------------------------------------------------
       Tag                 Description            Shells   Functions and Types
 ---------------- ------------------------------  ------  ---------------------
 H                        aug-cc-pvdz                5        9   3s2p
 C                        aug-cc-pvdz                9       25   4s3p2d
 O                        aug-cc-pvdz                9       25   4s3p2d
 N                        aug-cc-pvdz                9       25   4s3p2d



 Forming initial guess at       1.2s


 !! The overlap matrix has   6 vectors deemed linearly dependent with
    eigenvalues:
 2.52D-06 3.05D-06 4.51D-06 7.38D-06 8.73D-06 8.98D-06


      Superposition of Atomic Density Guess
      -------------------------------------

 Sum of atomic energies:        -812.03184720

      Non-variational initial energy
      ------------------------------

 Total energy =    -823.521036
 1-e energy   =   -3755.645879
 2-e energy   =    1596.236125
 HOMO         =      -0.304544
 LUMO         =       0.004449


 Starting SCF solution at     403.1s



 ----------------------------------------------
         Quadratically convergent ROHF

 Convergence threshold     :          1.000E-04
 Maximum no. of iterations :           30
 Final Fock-matrix accuracy:          1.000E-10
 ----------------------------------------------


              iter       energy          gnorm     gmax       time
             ----- ------------------- --------- --------- --------
                 1     -816.5153453114  2.42D+00  1.49D-01    673.4
                 2     -816.8302096925  8.45D-01  4.10D-02   1337.0
                 3     -816.8923630037  6.27D-02  3.64D-03   2387.1
                 4     -816.8929646118  1.91D-03  9.73D-05   4050.4
                 5     -816.8929650731  4.90D-06  4.06D-07   6287.8


       Final RHF  results 
       ------------------ 

         Total SCF energy =   -816.892965073112
      One-electron energy =  -3769.006055586573
      Two-electron energy =   1616.224372115716
 Nuclear repulsion energy =   1335.888718397745

        Time for solution =   5937.9s


             Final eigenvalues
             -----------------

              1      
    1  -20.5483
    2  -20.5401
    3  -20.5102
    4  -15.6225
    5  -15.5954
    6  -15.5720
    7  -11.3779
    8  -11.3693
    9  -11.3426
   10  -11.3139
   11  -11.2907
   12  -11.2593
   13  -11.2510
   14  -11.2344
   15  -11.2295
   16  -11.2195
   17  -11.2166
   18   -1.4150
   19   -1.3987
   20   -1.3716
   21   -1.2704
   22   -1.2429
   23   -1.2012
   24   -1.0976
   25   -1.0741
   26   -1.0173
   27   -1.0083
   28   -0.9322
   29   -0.9122
   30   -0.8854
   31   -0.8314
   32   -0.8069
   33   -0.7771
   34   -0.7732
   35   -0.7335
   36   -0.7250
   37   -0.7038
   38   -0.6904
   39   -0.6700
   40   -0.6609
   41   -0.6351
   42   -0.6276
   43   -0.6096
   44   -0.6050
   45   -0.5990
   46   -0.5913
   47   -0.5891
   48   -0.5744
   49   -0.5656
   50   -0.5560
   51   -0.5502
   52   -0.5450
   53   -0.5434
   54   -0.5397
   55   -0.5252
   56   -0.5145
   57   -0.5037
   58   -0.4702
   59   -0.4642
   60   -0.4609
   61   -0.4560
   62   -0.4435
   63   -0.4324
   64   -0.4089
   65   -0.3937
   66   -0.3822
   67    0.0210
   68    0.0341
   69    0.0386
   70    0.0408
   71    0.0486
   72    0.0518
   73    0.0549
   74    0.0590
   75    0.0608
   76    0.0679

                       ROHF Final Molecular Orbital Analysis
                       -------------------------------------

 Vector   18  Occ=2.000000D+00  E=-1.415037D+00
              MO Center= -6.0D-01, -1.9D+00,  1.1D+00, r^2= 1.8D+00
   Bfn.  Coefficient  Atom+Function         Bfn.  Coefficient  Atom+Function  
  ----- ------------  ---------------      ----- ------------  ---------------
    80      0.344250   6 O  s                79      0.336253   6 O  s         
    54      0.236497   5 C  s                12      0.170607   2 C  s         

 Vector   19  Occ=2.000000D+00  E=-1.398658D+00
              MO Center=  1.7D+00, -3.5D-01, -6.9D-01, r^2= 2.1D+00
   Bfn.  Coefficient  Atom+Function         Bfn.  Coefficient  Atom+Function  
  ----- ------------  ---------------      ----- ------------  ---------------
   250      0.365189  16 O  s               249      0.340661  16 O  s         
   224      0.229838  15 C  s         

 Vector   20  Occ=2.000000D+00  E=-1.371622D+00
              MO Center=  1.5D+00,  2.9D+00,  8.8D-01, r^2= 1.2D+00
   Bfn.  Coefficient  Atom+Function         Bfn.  Coefficient  Atom+Function  
  ----- ------------  ---------------      ----- ------------  ---------------
   549      0.375345  35 O  s               548      0.350193  35 O  s         
   523      0.243672  34 C  s         

 Vector   21  Occ=2.000000D+00  E=-1.270399D+00
              MO Center=  2.7D-02, -2.4D+00,  2.0D-01, r^2= 1.9D+00
   Bfn.  Coefficient  Atom+Function         Bfn.  Coefficient  Atom+Function  
  ----- ------------  ---------------      ----- ------------  ---------------
   105      0.402542   7 N  s               104      0.340331   7 N  s         
    80     -0.220974   6 O  s                79     -0.181366   6 O  s         
   128      0.157128   8 H  s                59     -0.153990   5 C  pz        

 Vector   22  Occ=2.000000D+00  E=-1.242941D+00
              MO Center=  7.7D-01,  2.5D-01, -5.5D-02, r^2= 2.2D+00
   Bfn.  Coefficient  Atom+Function         Bfn.  Coefficient  Atom+Function  
  ----- ------------  ---------------      ----- ------------  ---------------
   275      0.410396  17 N  s               274      0.338545  17 N  s         
   309     -0.217388  19 C  s               250     -0.202968  16 O  s         
   249     -0.161939  16 O  s         

 Vector   23  Occ=2.000000D+00  E=-1.201156D+00
              MO Center=  2.3D+00,  2.2D+00,  4.1D-01, r^2= 1.6D+00
   Bfn.  Coefficient  Atom+Function         Bfn.  Coefficient  Atom+Function  
  ----- ------------  ---------------      ----- ------------  ---------------
   574      0.391973  36 N  s               573      0.367203  36 N  s         
   549     -0.210079  35 O  s               548     -0.175098  35 O  s         
   597      0.164378  37 H  s               526      0.160069  34 C  px        
   606      0.157451  38 H  s         

 Vector   24  Occ=2.000000D+00  E=-1.097575D+00
              MO Center= -1.6D+00,  1.4D+00, -4.8D-01, r^2= 4.2D+00
   Bfn.  Coefficient  Atom+Function         Bfn.  Coefficient  Atom+Function  
  ----- ------------  ---------------      ----- ------------  ---------------
   385      0.242703  24 C  s               343      0.232985  21 C  s         
   342      0.192883  21 C  s         

 Vector   25  Occ=2.000000D+00  E=-1.074103D+00
              MO Center=  3.8D-01, -2.1D+00, -8.8D-02, r^2= 6.3D+00
   Bfn.  Coefficient  Atom+Function         Bfn.  Coefficient  Atom+Function  
  ----- ------------  ---------------      ----- ------------  ---------------
   138      0.235198   9 C  s               172      0.193824  11 C  s         
    12     -0.170961   2 C  s               225      0.161157  15 C  s         
   144      0.150958   9 C  px        

 Vector   26  Occ=2.000000D+00  E=-1.017270D+00
              MO Center= -6.5D-01,  6.3D-01, -1.3D-01, r^2= 7.4D+00
   Bfn.  Coefficient  Atom+Function         Bfn.  Coefficient  Atom+Function  
  ----- ------------  ---------------      ----- ------------  ---------------
   420     -0.250210  26 C  s               308      0.236809  19 C  s         
   386      0.172333  24 C  s         

 Vector   27  Occ=2.000000D+00  E=-1.008289D+00
              MO Center= -6.3D-01, -2.5D+00,  1.5D-01, r^2= 7.4D+00
   Bfn.  Coefficient  Atom+Function         Bfn.  Coefficient  Atom+Function  
  ----- ------------  ---------------      ----- ------------  ---------------
    11      0.283280   2 C  s               172      0.189341  11 C  s         
   144      0.174125   9 C  px               55      0.166612   5 C  s         

 Vector   28  Occ=2.000000D+00  E=-9.321523D-01
              MO Center= -2.6D+00,  1.1D+00, -7.4D-01, r^2= 3.5D+00
   Bfn.  Coefficient  Atom+Function         Bfn.  Coefficient  Atom+Function  
  ----- ------------  ---------------      ----- ------------  ---------------
   392      0.331893  24 C  py              419     -0.295264  26 C  s         
   471      0.237341  30 C  s               452     -0.159439  28 H  s         

 Vector   29  Occ=2.000000D+00  E=-9.121655D-01
              MO Center=  2.5D-01, -5.1D-01, -3.0D-01, r^2= 1.1D+01
   Bfn.  Coefficient  Atom+Function         Bfn.  Coefficient  Atom+Function  
  ----- ------------  ---------------      ----- ------------  ---------------
   139      0.323543   9 C  s               145      0.263219   9 C  py        
   225     -0.218192  15 C  s               172     -0.203187  11 C  s         
   420     -0.186236  26 C  s               342      0.177775  21 C  s         
   226      0.166088  15 C  s               173     -0.156259  11 C  s         
   471     -0.151243  30 C  s         

 Vector   30  Occ=2.000000D+00  E=-8.853577D-01
              MO Center=  3.8D-01,  5.4D-01, -1.0D-01, r^2= 9.9D+00
   Bfn.  Coefficient  Atom+Function         Bfn.  Coefficient  Atom+Function  
  ----- ------------  ---------------      ----- ------------  ---------------
   309      0.366278  19 C  s               342     -0.166105  21 C  s         
   420      0.163966  26 C  s         

 Vector   31  Occ=2.000000D+00  E=-8.313937D-01
              MO Center=  3.4D-02, -2.1D+00,  1.4D-01, r^2= 4.8D+00
   Bfn.  Coefficient  Atom+Function         Bfn.  Coefficient  Atom+Function  
  ----- ------------  ---------------      ----- ------------  ---------------
   109      0.238842   7 N  pz              139      0.224025   9 C  s         
   128     -0.219554   8 H  s                56     -0.214361   5 C  s         
    54      0.210608   5 C  s               107     -0.207908   7 N  px        
   309      0.185097  19 C  s                80     -0.164694   6 O  s         
   105     -0.151652   7 N  s         

 Vector   32  Occ=2.000000D+00  E=-8.069499D-01
              MO Center=  5.0D-01, -2.0D-01, -6.2D-02, r^2= 6.8D+00
   Bfn.  Coefficient  Atom+Function         Bfn.  Coefficient  Atom+Function  
  ----- ------------  ---------------      ----- ------------  ---------------
   309      0.231481  19 C  s               277      0.200831  17 N  px        
   128      0.176885   8 H  s               298     -0.169421  18 H  s         
   109     -0.157814   7 N  pz              224      0.157861  15 C  s         
   173      0.153258  11 C  s               145      0.152242   9 C  py        

 Vector   33  Occ=2.000000D+00  E=-7.771416D-01
              MO Center=  1.5D+00,  1.5D+00,  2.2D-01, r^2= 4.4D+00
   Bfn.  Coefficient  Atom+Function         Bfn.  Coefficient  Atom+Function  
  ----- ------------  ---------------      ----- ------------  ---------------
   576     -0.271709  36 N  px              314      0.251859  19 C  px        
   225     -0.226069  15 C  s               343      0.214719  21 C  s         
   298      0.198310  18 H  s               523      0.194950  34 C  s         
   529      0.176020  34 C  px              279      0.171436  17 N  pz        
   597     -0.166085  37 H  s               549     -0.163663  35 O  s         

 Vector   34  Occ=2.000000D+00  E=-7.731529D-01
              MO Center= -1.5D+00,  1.1D+00, -5.3D-01, r^2= 6.6D+00
   Bfn.  Coefficient  Atom+Function         Bfn.  Coefficient  Atom+Function  
  ----- ------------  ---------------      ----- ------------  ---------------
   386      0.563141  24 C  s               420     -0.366457  26 C  s         
   343     -0.315079  21 C  s               472     -0.253023  30 C  s         
   385      0.228418  24 C  s               409      0.208795  25 H  s         
   145     -0.177705   9 C  py              453      0.154106  28 H  s         

 Vector   35  Occ=2.000000D+00  E=-7.334799D-01
              MO Center=  1.1D+00, -1.2D-01, -1.2D-01, r^2= 7.7D+00
   Bfn.  Coefficient  Atom+Function         Bfn.  Coefficient  Atom+Function  
  ----- ------------  ---------------      ----- ------------  ---------------
   145      0.265443   9 C  py              343     -0.215333  21 C  s         
   228     -0.197860  15 C  py              225     -0.192274  15 C  s         
   253     -0.172235  16 O  py              606      0.167343  38 H  s         
   577      0.158322  36 N  py              139      0.155498   9 C  s         
   386      0.150250  24 C  s         

 Vector   36  Occ=2.000000D+00  E=-7.250137D-01
              MO Center=  1.4D+00,  7.6D-01,  1.4D-01, r^2= 6.9D+00
   Bfn.  Coefficient  Atom+Function         Bfn.  Coefficient  Atom+Function  
  ----- ------------  ---------------      ----- ------------  ---------------
   225      0.327170  15 C  s               145     -0.273183   9 C  py        
   139     -0.258006   9 C  s               597     -0.248633  37 H  s         
   577      0.232301  36 N  py              343      0.219021  21 C  s         
   578      0.180345  36 N  pz              386     -0.173665  24 C  s         
   526      0.168478  34 C  px              315     -0.158192  19 C  py        

 Vector   37  Occ=2.000000D+00  E=-7.038176D-01
              MO Center= -4.7D-01, -1.7D+00,  4.8D-01, r^2= 7.1D+00
   Bfn.  Coefficient  Atom+Function         Bfn.  Coefficient  Atom+Function  
  ----- ------------  ---------------      ----- ------------  ---------------
    57     -0.194278   5 C  px               17      0.188462   2 C  px        
    83     -0.176358   6 O  py               55     -0.163411   5 C  s         
    14      0.160134   2 C  px               82     -0.155890   6 O  px        
   315     -0.156414  19 C  py               80     -0.154186   6 O  s         
   309     -0.152598  19 C  s         

 Vector   38  Occ=2.000000D+00  E=-6.903752D-01
              MO Center=  3.2D-01, -1.9D+00,  5.2D-01, r^2= 4.8D+00
   Bfn.  Coefficient  Atom+Function         Bfn.  Coefficient  Atom+Function  
  ----- ------------  ---------------      ----- ------------  ---------------
   144      0.213190   9 C  px               84      0.208615   6 O  pz        
    80      0.201227   6 O  s               162      0.186508  10 H  s         
   108     -0.176606   7 N  py              141      0.173553   9 C  px        
   143      0.169977   9 C  pz               12     -0.152850   2 C  s         

 Vector   39  Occ=2.000000D+00  E=-6.700051D-01
              MO Center=  9.1D-01,  8.1D-01,  3.2D-03, r^2= 7.9D+00
   Bfn.  Coefficient  Atom+Function         Bfn.  Coefficient  Atom+Function  
  ----- ------------  ---------------      ----- ------------  ---------------
   315      0.290537  19 C  py              278     -0.193673  17 N  py        
   250      0.180931  16 O  s               309      0.180980  19 C  s         
   312      0.179068  19 C  py              606      0.164383  38 H  s         

 Vector   40  Occ=2.000000D+00  E=-6.608541D-01
              MO Center=  8.1D-01,  1.2D+00, -4.8D-03, r^2= 7.4D+00
   Bfn.  Coefficient  Atom+Function         Bfn.  Coefficient  Atom+Function  
  ----- ------------  ---------------      ----- ------------  ---------------
   313      0.224067  19 C  pz              526     -0.209870  34 C  px        
   332     -0.177961  20 H  s               576      0.173559  36 N  px        
   386      0.166550  24 C  s               552     -0.154870  35 O  py        
   225      0.151077  15 C  s         

 Vector   41  Occ=2.000000D+00  E=-6.351196D-01
              MO Center= -1.2D+00, -1.9D+00,  3.6D-01, r^2= 7.9D+00
   Bfn.  Coefficient  Atom+Function         Bfn.  Coefficient  Atom+Function  
  ----- ------------  ---------------      ----- ------------  ---------------
   139      0.265078   9 C  s                15      0.215328   2 C  py        
     1     -0.208214   1 H  s                44      0.197269   4 H  s         
    16     -0.168517   2 C  pz        

 Vector   42  Occ=2.000000D+00  E=-6.275610D-01
              MO Center= -1.2D+00,  6.3D-01, -5.5D-01, r^2= 9.2D+00
   Bfn.  Coefficient  Atom+Function         Bfn.  Coefficient  Atom+Function  
  ----- ------------  ---------------      ----- ------------  ---------------
   309      0.202930  19 C  s               390      0.163990  24 C  pz        
   376     -0.157239  23 H  s               424      0.153926  26 C  pz        
   254     -0.150040  16 O  pz        

 Vector   43  Occ=2.000000D+00  E=-6.095708D-01
              MO Center=  8.5D-01, -3.8D-02, -4.4D-01, r^2= 8.4D+00
   Bfn.  Coefficient  Atom+Function         Bfn.  Coefficient  Atom+Function  
  ----- ------------  ---------------      ----- ------------  ---------------
   252      0.214191  16 O  px              254     -0.179475  16 O  pz        
   145      0.169299   9 C  py              139      0.162484   9 C  s         
   229      0.160191  15 C  pz              298     -0.160599  18 H  s         

 Vector   44  Occ=2.000000D+00  E=-6.050305D-01
              MO Center= -3.7D-01, -1.6D+00,  6.1D-01, r^2= 7.5D+00
   Bfn.  Coefficient  Atom+Function         Bfn.  Coefficient  Atom+Function  
  ----- ------------  ---------------      ----- ------------  ---------------
    84      0.265202   6 O  pz               58     -0.208175   5 C  py        
    14      0.196123   2 C  px               80      0.190223   6 O  s         
    59     -0.177162   5 C  pz               83      0.171109   6 O  py        
   128     -0.166035   8 H  s               309     -0.152303  19 C  s         

 Vector   45  Occ=2.000000D+00  E=-5.989762D-01
              MO Center= -8.2D-01,  1.0D+00, -1.1D-02, r^2= 1.1D+01
   Bfn.  Coefficient  Atom+Function         Bfn.  Coefficient  Atom+Function  
  ----- ------------  ---------------      ----- ------------  ---------------
   552     -0.212652  35 O  py              453      0.209493  28 H  s         
   422      0.173324  26 C  px              452      0.168851  28 H  s         
   475      0.158416  30 C  py              549     -0.154740  35 O  s         
   513      0.150078  33 H  s         

 Vector   46  Occ=2.000000D+00  E=-5.912830D-01
              MO Center= -1.1D+00,  1.7D+00, -1.8D-01, r^2= 7.9D+00
   Bfn.  Coefficient  Atom+Function         Bfn.  Coefficient  Atom+Function  
  ----- ------------  ---------------      ----- ------------  ---------------
   524      0.240648  34 C  s               495      0.198110  31 H  s         
   314     -0.194193  19 C  px              311     -0.184427  19 C  px        
   474     -0.177632  30 C  px              496      0.171975  31 H  s         
   346     -0.165561  21 C  py              462     -0.154459  29 H  s         

 Vector   47  Occ=2.000000D+00  E=-5.891239D-01
              MO Center= -1.3D+00, -2.5D+00,  4.4D-01, r^2= 7.3D+00
   Bfn.  Coefficient  Atom+Function         Bfn.  Coefficient  Atom+Function  
  ----- ------------  ---------------      ----- ------------  ---------------
    36      0.315550   3 H  s                35      0.297203   3 H  s         
    16      0.290950   2 C  pz              175      0.176685  11 C  px        
    44     -0.173605   4 H  s         

 Vector   48  Occ=2.000000D+00  E=-5.744011D-01
              MO Center=  2.2D-01,  2.2D-01, -1.6D-01, r^2= 1.2D+01
   Bfn.  Coefficient  Atom+Function         Bfn.  Coefficient  Atom+Function  
  ----- ------------  ---------------      ----- ------------  ---------------
   453      0.245639  28 H  s               176     -0.194593  11 C  py        
   422      0.188209  26 C  px              553      0.186794  35 O  pz        
   139     -0.179341   9 C  s               444     -0.179815  27 H  s         
   527     -0.175908  34 C  py              206     -0.171260  13 H  s         
   174      0.162421  11 C  s               214      0.153494  14 H  s         

 Vector   49  Occ=2.000000D+00  E=-5.655540D-01
              MO Center=  1.3D+00, -9.7D-01, -4.7D-01, r^2= 8.9D+00
   Bfn.  Coefficient  Atom+Function         Bfn.  Coefficient  Atom+Function  
  ----- ------------  ---------------      ----- ------------  ---------------
   196     -0.227148  12 H  s               206      0.227975  13 H  s         
   225     -0.220335  15 C  s               177      0.212759  11 C  pz        
   139      0.209723   9 C  s               174     -0.195281  11 C  s         
   309     -0.181662  19 C  s               197     -0.174443  12 H  s         
   254     -0.170170  16 O  pz              175      0.165349  11 C  px        

 Vector   50  Occ=2.000000D+00  E=-5.560120D-01
              MO Center= -9.9D-02, -9.6D-01, -7.3D-02, r^2= 1.2D+01
   Bfn.  Coefficient  Atom+Function         Bfn.  Coefficient  Atom+Function  
  ----- ------------  ---------------      ----- ------------  ---------------
   276      0.177025  17 N  s               422      0.163460  26 C  px        
   176      0.160561  11 C  py              214     -0.155778  14 H  s         
   343      0.150850  21 C  s         

 Vector   51  Occ=2.000000D+00  E=-5.501921D-01
              MO Center=  9.4D-01, -1.6D+00, -2.4D-01, r^2= 9.5D+00
   Bfn.  Coefficient  Atom+Function         Bfn.  Coefficient  Atom+Function  
  ----- ------------  ---------------      ----- ------------  ---------------
   206      0.228012  13 H  s               176      0.204052  11 C  py        
   214     -0.201619  14 H  s               205      0.189979  13 H  s         
   215     -0.190160  14 H  s               254      0.189286  16 O  pz        
    12      0.176629   2 C  s               309      0.152586  19 C  s         

 Vector   52  Occ=2.000000D+00  E=-5.450362D-01
              MO Center= -1.3D-01, -1.9D+00,  2.1D-01, r^2= 9.0D+00
   Bfn.  Coefficient  Atom+Function         Bfn.  Coefficient  Atom+Function  
  ----- ------------  ---------------      ----- ------------  ---------------
   175      0.206147  11 C  px               56      0.187344   5 C  s         
    16     -0.186410   2 C  pz               44      0.182121   4 H  s         
    83     -0.180544   6 O  py                2     -0.175251   1 H  s         
   141     -0.171845   9 C  px               84      0.154907   6 O  pz        
   106     -0.150352   7 N  s               107      0.150676   7 N  px        

 Vector   53  Occ=2.000000D+00  E=-5.434381D-01
              MO Center=  5.7D-01,  7.2D-01,  2.1D-01, r^2= 1.0D+01
   Bfn.  Coefficient  Atom+Function         Bfn.  Coefficient  Atom+Function  
  ----- ------------  ---------------      ----- ------------  ---------------
   553      0.188014  35 O  pz              578      0.154157  36 N  pz        
   366     -0.152871  22 H  s               453     -0.150578  28 H  s         

 Vector   54  Occ=2.000000D+00  E=-5.396875D-01
              MO Center= -2.6D+00,  1.3D+00, -3.4D-01, r^2= 5.5D+00
   Bfn.  Coefficient  Atom+Function         Bfn.  Coefficient  Atom+Function  
  ----- ------------  ---------------      ----- ------------  ---------------
   476      0.283733  30 C  pz              504      0.277710  32 H  s         
   424     -0.257520  26 C  pz              462     -0.255372  29 H  s         
   461     -0.236136  29 H  s               473      0.179430  30 C  s         
   505      0.176458  32 H  s               343      0.170328  21 C  s         
   496     -0.161505  31 H  s         

 Vector   55  Occ=2.000000D+00  E=-5.252111D-01
              MO Center=  1.3D+00, -1.7D+00, -3.2D-01, r^2= 6.5D+00
   Bfn.  Coefficient  Atom+Function         Bfn.  Coefficient  Atom+Function  
  ----- ------------  ---------------      ----- ------------  ---------------
   174      0.307782  11 C  s               143      0.281375   9 C  pz        
   177     -0.266512  11 C  pz              162      0.249675  10 H  s         
   196      0.231209  12 H  s               173     -0.227098  11 C  s         
   178      0.209930  11 C  px              215     -0.206829  14 H  s         
   252     -0.191454  16 O  px               56     -0.190111   5 C  s         

 Vector   56  Occ=2.000000D+00  E=-5.144783D-01
              MO Center= -1.1D+00,  1.5D+00, -1.9D-01, r^2= 8.1D+00
   Bfn.  Coefficient  Atom+Function         Bfn.  Coefficient  Atom+Function  
  ----- ------------  ---------------      ----- ------------  ---------------
   376      0.258843  23 H  s               514     -0.257587  33 H  s         
   444     -0.243142  27 H  s               367     -0.207312  22 H  s         
   346      0.205095  21 C  py              375      0.196555  23 H  s         
   366     -0.180855  22 H  s               513     -0.180842  33 H  s         
   333     -0.177075  20 H  s               475     -0.169778  30 C  py        

 Vector   57  Occ=2.000000D+00  E=-5.036529D-01
              MO Center= -1.0D+00,  1.7D+00, -3.4D-01, r^2= 6.3D+00
   Bfn.  Coefficient  Atom+Function         Bfn.  Coefficient  Atom+Function  
  ----- ------------  ---------------      ----- ------------  ---------------
   348      0.277360  21 C  px              453     -0.276339  28 H  s         
   496     -0.258289  31 H  s               313      0.204538  19 C  pz        
   332     -0.197738  20 H  s               311     -0.196586  19 C  px        
   345      0.190847  21 C  px              476      0.165576  30 C  pz        
   495     -0.165357  31 H  s               386      0.162101  24 C  s         

 Vector   58  Occ=2.000000D+00  E=-4.701865D-01
              MO Center= -1.8D+00,  1.5D+00, -5.9D-01, r^2= 4.6D+00
   Bfn.  Coefficient  Atom+Function         Bfn.  Coefficient  Atom+Function  
  ----- ------------  ---------------      ----- ------------  ---------------
   309      0.291935  19 C  s               388     -0.253902  24 C  px        
   453      0.252841  28 H  s               409     -0.240733  25 H  s         
   410     -0.224597  25 H  s               474      0.208367  30 C  px        
   367     -0.201903  22 H  s               376      0.198287  23 H  s         
   477      0.186318  30 C  px              345      0.166316  21 C  px        

 Vector   59  Occ=2.000000D+00  E=-4.642251D-01
              MO Center= -1.6D+00,  1.3D+00, -5.6D-01, r^2= 5.7D+00
   Bfn.  Coefficient  Atom+Function         Bfn.  Coefficient  Atom+Function  
  ----- ------------  ---------------      ----- ------------  ---------------
   462      0.258308  29 H  s               410      0.238701  25 H  s         
   390     -0.233198  24 C  pz              420     -0.223730  26 C  s         
   444     -0.209743  27 H  s               347      0.208505  21 C  pz        
   409      0.202808  25 H  s               505      0.183243  32 H  s         
   388     -0.168078  24 C  px              253      0.166932  16 O  py        

 Vector   60  Occ=2.000000D+00  E=-4.609482D-01
              MO Center= -2.6D-01, -8.9D-02, -2.0D-01, r^2= 8.5D+00
   Bfn.  Coefficient  Atom+Function         Bfn.  Coefficient  Atom+Function  
  ----- ------------  ---------------      ----- ------------  ---------------
   253      0.285783  16 O  py              256      0.233412  16 O  py        
    82      0.211602   6 O  px              462     -0.210210  29 H  s         
    85      0.168532   6 O  px              252     -0.152696  16 O  px        

 Vector   61  Occ=2.000000D+00  E=-4.560187D-01
              MO Center= -1.5D+00,  8.6D-01, -3.6D-01, r^2= 7.0D+00
   Bfn.  Coefficient  Atom+Function         Bfn.  Coefficient  Atom+Function  
  ----- ------------  ---------------      ----- ------------  ---------------
   389      0.256363  24 C  py              423     -0.242128  26 C  py        
   477      0.210032  30 C  px              453      0.203249  28 H  s         
    82     -0.182989   6 O  px              472      0.178891  30 C  s         
   475     -0.174234  30 C  py              375     -0.160985  23 H  s         
   346     -0.156524  21 C  py              139     -0.154870   9 C  s         

 Vector   62  Occ=2.000000D+00  E=-4.434826D-01
              MO Center= -6.6D-01, -1.7D+00,  1.0D+00, r^2= 4.4D+00
   Bfn.  Coefficient  Atom+Function         Bfn.  Coefficient  Atom+Function  
  ----- ------------  ---------------      ----- ------------  ---------------
    82      0.431139   6 O  px               85      0.350833   6 O  px        
   276     -0.199592  17 N  s                83      0.198180   6 O  py        
   225      0.181811  15 C  s               105     -0.162873   7 N  s         
   140      0.162939   9 C  s                84     -0.157389   6 O  pz        
    13     -0.156116   2 C  s                17      0.156109   2 C  px        

 Vector   63  Occ=2.000000D+00  E=-4.324023D-01
              MO Center=  1.2D+00,  1.6D+00,  3.9D-01, r^2= 6.0D+00
   Bfn.  Coefficient  Atom+Function         Bfn.  Coefficient  Atom+Function  
  ----- ------------  ---------------      ----- ------------  ---------------
   551      0.427896  35 O  px              554      0.334929  35 O  px        
   276      0.261142  17 N  s               343     -0.256505  21 C  s         
   279      0.204760  17 N  pz              254     -0.193752  16 O  pz        
   252     -0.182251  16 O  px              282      0.183084  17 N  pz        
   574     -0.164495  36 N  s               277      0.162154  17 N  px        

 Vector   64  Occ=2.000000D+00  E=-4.089322D-01
              MO Center=  7.3D-01, -1.4D+00, -3.5D-02, r^2= 5.0D+00
   Bfn.  Coefficient  Atom+Function         Bfn.  Coefficient  Atom+Function  
  ----- ------------  ---------------      ----- ------------  ---------------
   253      0.318578  16 O  py              108     -0.276682   7 N  py        
   111     -0.265414   7 N  py              256      0.254658  16 O  py        
   109      0.208084   7 N  pz              145      0.194317   9 C  py        
   106      0.175638   7 N  s               112      0.174401   7 N  pz        
    83      0.171740   6 O  py              142      0.163377   9 C  py        

 Vector   65  Occ=2.000000D+00  E=-3.936843D-01
              MO Center=  2.1D+00,  2.6D+00,  6.7D-01, r^2= 2.3D+00
   Bfn.  Coefficient  Atom+Function         Bfn.  Coefficient  Atom+Function  
  ----- ------------  ---------------      ----- ------------  ---------------
   578     -0.350685  36 N  pz              553      0.320314  35 O  pz        
   581     -0.300140  36 N  pz              577      0.269214  36 N  py        
   556      0.249666  35 O  pz              552     -0.234216  35 O  py        
   580      0.230473  36 N  py              555     -0.183418  35 O  py        
   283     -0.153975  17 N  px        

 Vector   66  Occ=2.000000D+00  E=-3.821709D-01
              MO Center=  1.0D+00,  1.4D+00,  1.7D-01, r^2= 4.7D+00
   Bfn.  Coefficient  Atom+Function         Bfn.  Coefficient  Atom+Function  
  ----- ------------  ---------------      ----- ------------  ---------------
   551      0.316881  35 O  px              309     -0.271580  19 C  s         
   276     -0.266465  17 N  s               554      0.253480  35 O  px        
   279     -0.251824  17 N  pz              277     -0.235989  17 N  px        
   282     -0.231301  17 N  pz              280     -0.218954  17 N  px        
   524      0.200409  34 C  s               254      0.170822  16 O  pz        

 Vector   67  Occ=0.000000D+00  E= 2.103463D-02
              MO Center= -1.0D+00, -4.8D+00, -9.7D-01, r^2= 1.9D+01
   Bfn.  Coefficient  Atom+Function         Bfn.  Coefficient  Atom+Function  
  ----- ------------  ---------------      ----- ------------  ---------------
   226      3.410987  15 C  s               234     -2.249213  15 C  py        
    63     -2.105328   5 C  px                3     -2.091828   1 H  s         
   140      1.890897   9 C  s               148     -1.855697   9 C  py        
   216     -1.670624  14 H  s               106     -1.650485   7 N  s         
   525      1.631717  34 C  s               147     -1.546891   9 C  px        

 Vector   68  Occ=0.000000D+00  E= 3.413617D-02
              MO Center= -1.0D+00, -2.4D+00, -8.0D-01, r^2= 3.9D+01
   Bfn.  Coefficient  Atom+Function         Bfn.  Coefficient  Atom+Function  
  ----- ------------  ---------------      ----- ------------  ---------------
   351      2.926113  21 C  px              234     -2.825973  15 C  py        
    63      2.772204   5 C  px              317      2.771452  19 C  px        
   216     -2.533249  14 H  s               421      2.481266  26 C  s         
   445      2.427628  27 H  s                46      2.195116   4 H  s         
   394      2.119345  24 C  px              106     -1.986706   7 N  s         

 Vector   69  Occ=0.000000D+00  E= 3.858921D-02
              MO Center= -3.5D-01, -1.9D+00, -1.3D+00, r^2= 3.8D+01
   Bfn.  Coefficient  Atom+Function         Bfn.  Coefficient  Atom+Function  
  ----- ------------  ---------------      ----- ------------  ---------------
   147      3.941039   9 C  px               63      3.486520   5 C  px        
    56      3.059441   5 C  s                 3      2.640564   1 H  s         
   525      2.453370  34 C  s               473      2.002802  30 C  s         
   198     -1.975876  12 H  s                64      1.663790   5 C  py        
   149     -1.651641   9 C  pz              575     -1.536932  36 N  s         

 Vector   70  Occ=0.000000D+00  E= 4.082336D-02
              MO Center= -5.1D-02, -9.7D-01,  4.0D-01, r^2= 4.1D+01
   Bfn.  Coefficient  Atom+Function         Bfn.  Coefficient  Atom+Function  
  ----- ------------  ---------------      ----- ------------  ---------------
    37      2.434813   3 H  s               164      2.256645  10 H  s         
   130     -2.031674   8 H  s               575      1.855874  36 N  s         
   463     -1.724382  29 H  s               149     -1.681539   9 C  pz        
   525     -1.651462  34 C  s               198     -1.588148  12 H  s         
   207      1.539388  13 H  s               532     -1.542651  34 C  px        

 Vector   71  Occ=0.000000D+00  E= 4.863884D-02
              MO Center= -1.6D-02,  5.4D-01, -5.4D-01, r^2= 5.0D+01
   Bfn.  Coefficient  Atom+Function         Bfn.  Coefficient  Atom+Function  
  ----- ------------  ---------------      ----- ------------  ---------------
   216      3.228535  14 H  s               532      2.480183  34 C  px        
   106      2.193244   7 N  s               497      2.201471  31 H  s         
   226     -2.105776  15 C  s               351      2.012579  21 C  px        
   608     -1.953614  38 H  s                46     -1.911035   4 H  s         
   575     -1.900802  36 N  s               148      1.646656   9 C  py        

 Vector   72  Occ=0.000000D+00  E= 5.175342D-02
              MO Center= -5.2D-01, -2.4D-01, -1.1D+00, r^2= 4.4D+01
   Bfn.  Coefficient  Atom+Function         Bfn.  Coefficient  Atom+Function  
  ----- ------------  ---------------      ----- ------------  ---------------
     3      3.178976   1 H  s               411      2.767941  25 H  s         
   174      2.715725  11 C  s               421     -2.095753  26 C  s         
    37     -1.888068   3 H  s                56     -1.760703   5 C  s         
   207     -1.714130  13 H  s               445     -1.714377  27 H  s         
   234     -1.702643  15 C  py              506     -1.683766  32 H  s         

 Vector   73  Occ=0.000000D+00  E= 5.494332D-02
              MO Center= -1.6D+00, -8.0D-01, -2.7D-01, r^2= 4.1D+01
   Bfn.  Coefficient  Atom+Function         Bfn.  Coefficient  Atom+Function  
  ----- ------------  ---------------      ----- ------------  ---------------
   164      3.247649  10 H  s               198     -2.943199  12 H  s         
   445      2.927347  27 H  s               506     -2.729756  32 H  s         
    37     -2.629004   3 H  s               351      2.093142  21 C  px        
   421      2.062654  26 C  s                63     -2.040751   5 C  px        
   428      1.892637  26 C  px              395      1.883021  24 C  py        

 Vector   74  Occ=0.000000D+00  E= 5.903046D-02
              MO Center= -1.0D+00,  1.5D-01, -7.6D-01, r^2= 4.3D+01
   Bfn.  Coefficient  Atom+Function         Bfn.  Coefficient  Atom+Function  
  ----- ------------  ---------------      ----- ------------  ---------------
    37      3.394839   3 H  s               130     -3.376902   8 H  s         
   411      3.013133  25 H  s               394     -2.350942  24 C  px        
   454      2.218674  28 H  s               198      2.035107  12 H  s         
    46     -1.910002   4 H  s               106     -1.895463   7 N  s         
   608     -1.817930  38 H  s               532      1.751930  34 C  px        

 Vector   75  Occ=0.000000D+00  E= 6.078388D-02
              MO Center=  4.6D-01, -1.8D+00,  7.5D-01, r^2= 3.5D+01
   Bfn.  Coefficient  Atom+Function         Bfn.  Coefficient  Atom+Function  
  ----- ------------  ---------------      ----- ------------  ---------------
   164      5.179137  10 H  s                56     -3.938725   5 C  s         
    63     -3.602881   5 C  px              207     -3.067347  13 H  s         
   276      3.081906  17 N  s               106      2.969123   7 N  s         
   149     -2.585161   9 C  pz              130      2.503727   8 H  s         
   233      2.514169  15 C  px              463     -2.491932  29 H  s         

 Vector   76  Occ=0.000000D+00  E= 6.786877D-02
              MO Center=  3.5D-01,  1.2D-01, -2.4D-01, r^2= 5.0D+01
   Bfn.  Coefficient  Atom+Function         Bfn.  Coefficient  Atom+Function  
  ----- ------------  ---------------      ----- ------------  ---------------
   226      4.643993  15 C  s               216     -3.701502  14 H  s         
   207      3.453035  13 H  s                46      3.371642   4 H  s         
   515      3.321712  33 H  s               174     -3.082855  11 C  s         
    13     -2.961715   2 C  s               164      2.664073  10 H  s         
   140      2.375140   9 C  s               113     -2.304909   7 N  px        

 Vector   77  Occ=0.000000D+00  E= 7.115828D-02
              MO Center= -1.2D+00, -7.8D-01, -1.1D+00, r^2= 4.6D+01
   Bfn.  Coefficient  Atom+Function         Bfn.  Coefficient  Atom+Function  
  ----- ------------  ---------------      ----- ------------  ---------------
   216      4.601249  14 H  s               497     -4.143189  31 H  s         
    46      3.541966   4 H  s               454     -3.354828  28 H  s         
     3     -3.137740   1 H  s               198     -2.734787  12 H  s         
    56      2.716285   5 C  s               334      2.615514  20 H  s         
   276     -2.300990  17 N  s               317     -2.089992  19 C  px        

 Vector   78  Occ=0.000000D+00  E= 7.851977D-02
              MO Center= -1.3D+00,  5.6D-01,  1.8D-01, r^2= 4.5D+01
   Bfn.  Coefficient  Atom+Function         Bfn.  Coefficient  Atom+Function  
  ----- ------------  ---------------      ----- ------------  ---------------
   506      5.894879  32 H  s               234     -3.742697  15 C  py        
    63     -3.225597   5 C  px              515     -3.134581  33 H  s         
   198     -3.111232  12 H  s                37     -2.970114   3 H  s         
   113     -2.905970   7 N  px              174      2.865776  11 C  s         
   207      2.675337  13 H  s               454      2.671610  28 H  s         

 Vector   79  Occ=0.000000D+00  E= 8.108679D-02
              MO Center= -1.3D+00,  4.8D-02, -2.7D-01, r^2= 4.0D+01
   Bfn.  Coefficient  Atom+Function         Bfn.  Coefficient  Atom+Function  
  ----- ------------  ---------------      ----- ------------  ---------------
   463      6.657359  29 H  s               445     -5.578018  27 H  s         
   368     -4.656430  22 H  s               454     -4.661976  28 H  s         
   130      3.638127   8 H  s               147      3.452708   9 C  px        
     3     -3.409467   1 H  s               497      3.333619  31 H  s         
   430     -3.150147  26 C  pz               56      2.989637   5 C  s         

 Vector   80  Occ=0.000000D+00  E= 8.317674D-02
              MO Center= -2.2D-01, -2.9D-01, -1.4D+00, r^2= 3.8D+01
   Bfn.  Coefficient  Atom+Function         Bfn.  Coefficient  Atom+Function  
  ----- ------------  ---------------      ----- ------------  ---------------
   411      7.308200  25 H  s               334     -6.137646  20 H  s         
   130      4.568123   8 H  s               198     -3.990445  12 H  s         
   207      3.773529  13 H  s               147      3.332982   9 C  px        
   396      3.240079  24 C  pz              368      3.061428  22 H  s         
   317      2.927181  19 C  px              351      2.843529  21 C  px        

 Vector   81  Occ=0.000000D+00  E= 8.761703D-02
              MO Center= -1.0D+00,  1.3D-01, -3.3D-01, r^2= 3.8D+01
   Bfn.  Coefficient  Atom+Function         Bfn.  Coefficient  Atom+Function  
  ----- ------------  ---------------      ----- ------------  ---------------
   454      9.232975  28 H  s               174      6.937707  11 C  s         
   351     -4.820624  21 C  px              234      4.687575  15 C  py        
   473     -4.303966  30 C  s               421     -4.119225  26 C  s         
   368     -3.839263  22 H  s               515      3.628056  33 H  s         
    46     -3.479635   4 H  s                37      3.238824   3 H  s         

 Vector   82  Occ=0.000000D+00  E= 9.070341D-02
              MO Center= -6.5D-01,  3.0D-01, -4.2D-01, r^2= 4.3D+01
   Bfn.  Coefficient  Atom+Function         Bfn.  Coefficient  Atom+Function  
  ----- ------------  ---------------      ----- ------------  ---------------
    56      9.657783   5 C  s               445     -6.303497  27 H  s         
   454      5.972972  28 H  s                63      4.868222   5 C  px        
   473     -4.743165  30 C  s                64      4.493058   5 C  py        
    46      4.402480   4 H  s               428     -4.086743  26 C  px        
   130     -4.044114   8 H  s               106     -3.933616   7 N  s         

 Vector   83  Occ=0.000000D+00  E= 9.666305D-02
              MO Center=  1.8D-01,  1.5D+00, -9.4D-02, r^2= 4.4D+01
   Bfn.  Coefficient  Atom+Function         Bfn.  Coefficient  Atom+Function  
  ----- ------------  ---------------      ----- ------------  ---------------
   377      9.200726  23 H  s               368     -7.213684  22 H  s         
   599     -5.480545  37 H  s               352     -4.846655  21 C  py        
   515     -4.770498  33 H  s               207      3.767465  13 H  s         
   216     -3.642731  14 H  s               463      3.446650  29 H  s         
    46     -3.203991   4 H  s               353      3.015208  21 C  pz        

 Vector   84  Occ=0.000000D+00  E= 1.019092D-01
[...]
   421     -6.798542  26 C  s               394      6.665926  24 C  px        
   284     -6.355145  17 N  py              319      6.113604  19 C  pz        
    56     -5.856429   5 C  s               300     -5.797010  18 H  s         

 Vector  172  Occ=0.000000D+00  E= 4.408233D-01
              MO Center= -3.7D-01, -2.1D-01, -5.2D-02, r^2= 2.3D+01
   Bfn.  Coefficient  Atom+Function         Bfn.  Coefficient  Atom+Function  
  ----- ------------  ---------------      ----- ------------  ---------------
   174     13.254690  11 C  s               226    -12.910579  15 C  s         
   148     11.490308   9 C  py              234     11.429145  15 C  py        
   113     11.319163   7 N  px               13     10.246628   2 C  s         
   140    -10.030909   9 C  s                63      9.590988   5 C  px        
    56      8.889290   5 C  s               173      8.755599  11 C  s         

 Vector  173  Occ=0.000000D+00  E= 4.432758D-01
              MO Center= -6.7D-01,  3.5D-01, -7.1D-02, r^2= 2.2D+01
   Bfn.  Coefficient  Atom+Function         Bfn.  Coefficient  Atom+Function  
  ----- ------------  ---------------      ----- ------------  ---------------
   276     17.665604  17 N  s                56    -11.022963   5 C  s         
   234     -7.492072  15 C  py              575     -7.118593  36 N  s         
   318      5.950065  19 C  py              394      5.965047  24 C  px        
   351     -5.753396  21 C  px              532      5.112704  34 C  px        
   396     -4.990352  24 C  pz              463     -4.848520  29 H  s         

 Vector  174  Occ=0.000000D+00  E= 4.487230D-01
              MO Center= -1.1D+00, -4.9D-02, -4.3D-01, r^2= 2.2D+01
   Bfn.  Coefficient  Atom+Function         Bfn.  Coefficient  Atom+Function  
  ----- ------------  ---------------      ----- ------------  ---------------
   276      8.947303  17 N  s                56      8.816499   5 C  s         
   472     -8.300578  30 C  s               147      7.417266   9 C  px        
   234      6.955436  15 C  py              421     -6.844947  26 C  s         
   514      6.580529  33 H  s               496      5.934961  31 H  s         
   396     -5.810142  24 C  pz               63      5.064877   5 C  px        

 Vector  175  Occ=0.000000D+00  E= 4.522292D-01
              MO Center= -6.8D-01, -6.6D-01, -3.8D-01, r^2= 1.9D+01
   Bfn.  Coefficient  Atom+Function         Bfn.  Coefficient  Atom+Function  
  ----- ------------  ---------------      ----- ------------  ---------------
   106     12.414984   7 N  s               234      8.867715  15 C  py        
   421     -6.550954  26 C  s               420      5.815682  26 C  s         
   429     -5.502685  26 C  py              319      5.066212  19 C  pz        
   147      5.014582   9 C  px              149      4.879099   9 C  pz        
   113      4.807177   7 N  px              235     -4.536515  15 C  pz        

 Vector  176  Occ=0.000000D+00  E= 4.530578D-01
              MO Center= -7.8D-01,  1.6D+00, -4.5D-01, r^2= 1.7D+01
   Bfn.  Coefficient  Atom+Function         Bfn.  Coefficient  Atom+Function  
  ----- ------------  ---------------      ----- ------------  ---------------
   226     11.262666  15 C  s               317    -10.366610  19 C  px        
   473     -9.977050  30 C  s               394     -9.884580  24 C  px        
   376     -8.445496  23 H  s               575      7.895406  36 N  s         
   352      7.726393  21 C  py              140      7.007828   9 C  s         
   395     -6.966913  24 C  py              343      6.847345  21 C  s         

 Vector  177  Occ=0.000000D+00  E= 4.610491D-01
              MO Center= -3.5D-01, -7.1D-01, -4.6D-01, r^2= 2.0D+01
   Bfn.  Coefficient  Atom+Function         Bfn.  Coefficient  Atom+Function  
  ----- ------------  ---------------      ----- ------------  ---------------
   106     14.933623   7 N  s               226    -11.333043  15 C  s         
   276      8.971589  17 N  s                12      8.353104   2 C  s         
   463     -7.515950  29 H  s               284     -7.210030  17 N  py        
   174      6.878011  11 C  s               149      6.715181   9 C  pz        
   235     -5.995662  15 C  pz               56     -5.566660   5 C  s         

 Vector  178  Occ=0.000000D+00  E= 4.632788D-01
              MO Center= -3.4D-01, -1.6D-01, -6.1D-01, r^2= 2.1D+01
   Bfn.  Coefficient  Atom+Function         Bfn.  Coefficient  Atom+Function  
  ----- ------------  ---------------      ----- ------------  ---------------
   226     15.750937  15 C  s               525     10.469034  34 C  s         
   317    -10.390774  19 C  px               13     -9.532216   2 C  s         
   148     -9.421451   9 C  py              140      8.926862   9 C  s         
    63     -7.735501   5 C  px              276     -7.456323  17 N  s         
   283     -7.490684  17 N  px              387     -7.412572  24 C  s         

 Vector  179  Occ=0.000000D+00  E= 4.653348D-01
              MO Center=  3.6D-01, -3.3D-01,  7.1D-02, r^2= 2.1D+01
   Bfn.  Coefficient  Atom+Function         Bfn.  Coefficient  Atom+Function  
  ----- ------------  ---------------      ----- ------------  ---------------
   234     13.963905  15 C  py              276    -10.552998  17 N  s         
   174      9.023983  11 C  s               226     -8.174646  15 C  s         
   344      7.882923  21 C  s               575     -7.384243  36 N  s         
   353     -7.171875  21 C  pz               63      7.075980   5 C  px        
   368      7.020493  22 H  s               420      6.958636  26 C  s         

 Vector  180  Occ=0.000000D+00  E= 4.725186D-01
              MO Center=  2.4D-01, -6.4D-02, -1.5D-01, r^2= 2.1D+01
   Bfn.  Coefficient  Atom+Function         Bfn.  Coefficient  Atom+Function  
  ----- ------------  ---------------      ----- ------------  ---------------
   421    -15.557881  26 C  s               226     14.850409  15 C  s         
   525     14.717175  34 C  s               317    -12.593050  19 C  px        
   276    -11.651828  17 N  s               300    -11.467462  18 H  s         
   147     -8.124785   9 C  px              174      7.662342  11 C  s         
   106     -7.524918   7 N  s               473      7.041462  30 C  s         

 Vector  181  Occ=0.000000D+00  E= 4.753596D-01
              MO Center= -3.7D-01,  2.3D-01,  9.8D-03, r^2= 2.2D+01
   Bfn.  Coefficient  Atom+Function         Bfn.  Coefficient  Atom+Function  
  ----- ------------  ---------------      ----- ------------  ---------------
    56     14.187930   5 C  s               300    -10.367108  18 H  s         
    12     10.014493   2 C  s               317      9.067126  19 C  px        
   472     -8.331187  30 C  s               319      7.309277  19 C  pz        
   226     -6.736241  15 C  s                13      6.571787   2 C  s         
   505      6.496599  32 H  s                36     -6.355392   3 H  s         

 Vector  182  Occ=0.000000D+00  E= 4.791178D-01
              MO Center= -1.8D-01, -5.5D-01, -4.5D-01, r^2= 2.2D+01
   Bfn.  Coefficient  Atom+Function         Bfn.  Coefficient  Atom+Function  
  ----- ------------  ---------------      ----- ------------  ---------------
   226     21.222843  15 C  s               174    -16.697812  11 C  s         
   317    -13.761750  19 C  px              421    -13.548894  26 C  s         
   140     11.380339   9 C  s               351     -8.872078  21 C  px        
    13     -8.673552   2 C  s                12     -8.436782   2 C  s         
   420     -8.332532  26 C  s               525      7.862013  34 C  s         

 Vector  183  Occ=0.000000D+00  E= 4.838999D-01
              MO Center= -1.4D+00,  2.0D-01, -3.0D-01, r^2= 2.2D+01
   Bfn.  Coefficient  Atom+Function         Bfn.  Coefficient  Atom+Function  
  ----- ------------  ---------------      ----- ------------  ---------------
   174     26.170071  11 C  s               473    -13.704868  30 C  s         
   147    -11.833255   9 C  px              173      9.268871  11 C  s         
   394     -9.067554  24 C  px              148      8.717954   9 C  py        
   344      8.278616  21 C  s               197     -8.011889  12 H  s         
   276     -7.653182  17 N  s               343      7.427320  21 C  s         

 Vector  184  Occ=0.000000D+00  E= 4.858384D-01
              MO Center= -5.9D-01,  1.5D-01,  3.8D-01, r^2= 2.2D+01
   Bfn.  Coefficient  Atom+Function         Bfn.  Coefficient  Atom+Function  
  ----- ------------  ---------------      ----- ------------  ---------------
   174     14.020102  11 C  s               343    -12.583386  21 C  s         
   276    -12.097175  17 N  s               344     11.764542  21 C  s         
   300     -8.149366  18 H  s                56     -7.761424   5 C  s         
   317      7.338799  19 C  px               12     -7.138809   2 C  s         
   234      7.045583  15 C  py              353     -6.933428  21 C  pz        

 Vector  185  Occ=0.000000D+00  E= 4.925640D-01
              MO Center=  1.9D-01, -3.2D-01, -5.4D-01, r^2= 2.1D+01
   Bfn.  Coefficient  Atom+Function         Bfn.  Coefficient  Atom+Function  
  ----- ------------  ---------------      ----- ------------  ---------------
   226     12.322143  15 C  s               106    -10.141825   7 N  s         
   174     -9.301174  11 C  s               276     -9.341106  17 N  s         
    56      8.573307   5 C  s               525      7.349440  34 C  s         
   317     -6.335595  19 C  px              140      6.284126   9 C  s         
   215      6.166281  14 H  s               148     -5.293572   9 C  py        

 Vector  186  Occ=0.000000D+00  E= 4.935365D-01
              MO Center= -9.7D-01,  9.2D-01, -5.8D-01, r^2= 1.8D+01
   Bfn.  Coefficient  Atom+Function         Bfn.  Coefficient  Atom+Function  
  ----- ------------  ---------------      ----- ------------  ---------------
   351     -9.252780  21 C  px              421     -8.916028  26 C  s         
   276      8.431699  17 N  s               386     -7.359050  24 C  s         
   454      6.928897  28 H  s               410      6.794203  25 H  s         
   428     -5.610762  26 C  px              318      5.430301  19 C  py        
   525      5.404011  34 C  s               139     -5.233554   9 C  s         

 Vector  187  Occ=0.000000D+00  E= 4.968662D-01
              MO Center= -1.7D-01, -3.6D-01, -1.4D-01, r^2= 2.2D+01
   Bfn.  Coefficient  Atom+Function         Bfn.  Coefficient  Atom+Function  
  ----- ------------  ---------------      ----- ------------  ---------------
   174     17.005480  11 C  s               226    -16.690744  15 C  s         
   473     16.371526  30 C  s               276     13.012571  17 N  s         
   140    -12.805246   9 C  s                56    -10.002564   5 C  s         
   344     -8.975015  21 C  s               317     -8.538855  19 C  px        
   387     -8.350289  24 C  s                13      7.700579   2 C  s         

 Vector  188  Occ=0.000000D+00  E= 5.033456D-01
              MO Center= -1.2D+00,  2.0D-01, -3.0D-01, r^2= 2.2D+01
   Bfn.  Coefficient  Atom+Function         Bfn.  Coefficient  Atom+Function  
  ----- ------------  ---------------      ----- ------------  ---------------
   473     14.158675  30 C  s               276      8.104703  17 N  s         
   317     -6.870164  19 C  px              140     -6.786681   9 C  s         
   387     -6.798006  24 C  s               428     -6.699681  26 C  px        
    12      6.495429   2 C  s               174      6.376676  11 C  s         
   343     -6.335112  21 C  s               344     -6.315386  21 C  s         


 center of mass
 --------------
 x =   0.10896115 y =   0.03939004 z =   0.04502755

 moments of inertia (a.u.)
 ------------------
        4801.162446892876           0.000000000000           0.000000000000
           0.000000000000        3650.098367156798          -0.000000000001
           0.000000000000          -0.000000000001        7252.943398576501

  Mulliken analysis of the total density
  --------------------------------------

    Atom       Charge   Shell Charges
 -----------   ------   -------------------------------------------------------
    1 H    1     0.87   0.77  0.14  0.02  0.03 -0.08
    2 C    6     6.28   2.01  0.66  0.30  0.15  2.07  0.94 -0.02  0.06  0.11
    3 H    1     0.95   0.76  0.21  0.01  0.03 -0.07
    4 H    1     0.83   0.76  0.09  0.01  0.03 -0.07
    5 C    6     5.25   2.01  0.68  0.05  0.09  1.89  0.35 -0.04  0.24 -0.01
    6 O    8     8.82   2.01  0.82  1.01  0.17  2.80  1.87  0.13  0.02 -0.01
    7 N    7     7.52   2.01  0.72  0.81 -0.15  2.45  1.45  0.13  0.05  0.04
    8 H    1     0.97   0.77  0.22 -0.03  0.05 -0.04
    9 C    6     6.66   2.01  0.66  0.06  0.00  1.99  1.71 -0.13  0.14  0.21
   10 H    1     0.99   0.78  0.15  0.01  0.03  0.01
   11 C    6     5.79   2.01  0.66  0.25  0.31  2.04  0.48 -0.05  0.07  0.02
   12 H    1     0.89   0.77  0.15  0.03  0.03 -0.08
   13 H    1     0.95   0.77  0.23  0.01  0.03 -0.08
   14 H    1     0.92   0.77  0.19  0.02  0.03 -0.09
   15 C    6     4.37   2.01  0.68 -0.07 -0.01  1.88  0.13 -0.08  0.23 -0.41
   16 O    8     8.90   2.01  0.82  1.04  0.18  2.80  1.88  0.17  0.01 -0.00
   17 N    7     7.70   2.01  0.72  0.88 -0.12  2.45  1.45  0.21  0.05  0.05
   18 H    1     0.94   0.73  0.29 -0.01  0.06 -0.14
   19 C    6     6.41   2.01  0.66  0.10  0.03  1.99  1.32  0.19  0.14 -0.02
   20 H    1     1.05   0.78  0.20  0.00  0.03  0.04
   21 C    6     5.66   2.01  0.67  0.49 -0.08  2.03  0.48 -0.04  0.09  0.02
   22 H    1     0.94   0.79  0.23 -0.03  0.03 -0.08
   23 H    1     1.05   0.78  0.31  0.01  0.03 -0.07
   24 C    6     6.78   2.01  0.66  0.13  0.14  2.01  1.44 -0.09  0.12  0.37
   25 H    1     1.09   0.80  0.30  0.03  0.03 -0.06
   26 C    6     5.74   2.01  0.67  0.53  0.09  2.05  0.32 -0.01  0.07  0.02
   27 H    1     1.01   0.78  0.31 -0.01  0.03 -0.11
   28 H    1     0.98   0.78  0.23  0.03  0.03 -0.09
   29 H    1     0.84   0.78  0.21 -0.05  0.03 -0.13
   30 C    6     5.50   2.01  0.66  0.16  0.17  2.04  0.55 -0.08  0.07 -0.08
   31 H    1     1.00   0.78  0.26  0.01  0.03 -0.08
   32 H    1     0.91   0.78  0.16  0.02  0.03 -0.08
   33 H    1     1.04   0.78  0.31  0.01  0.03 -0.08
   34 C    6     4.46   2.01  0.68  0.04  0.02  1.89 -0.13 -0.06  0.24 -0.22
   35 O    8     8.77   2.01  0.82  1.03  0.15  2.79  1.83  0.14  0.01 -0.01
   36 N    7     7.26   2.01  0.72  0.83 -0.13  2.47  1.25  0.09  0.04 -0.02
   37 H    1     0.90   0.73  0.20 -0.01  0.06 -0.07
   38 H    1     1.01   0.76  0.23 -0.00  0.05 -0.03

       Multipole analysis of the density wrt the origin
       ------------------------------------------------

     L   x y z        total         open         nuclear
     -   - - -        -----         ----         -------
     0   0 0 0      0.000000      0.000000    132.000000

     1   1 0 0     -0.543786      0.000000     -0.000000
     1   0 1 0     -2.618392      0.000000      0.000000
     1   0 0 1     -1.084903      0.000000     -0.000000

     2   2 0 0    -73.143119      0.000000   1763.790574
     2   1 1 0     -0.471937      0.000000    -44.445790
     2   1 0 1      4.027954      0.000000     11.557831
     2   0 2 0    -76.007711      0.000000   2342.988072
     2   0 1 1     -3.223693      0.000000     -2.702897
     2   0 0 2    -85.765121      0.000000    339.067858


 Task  times  cpu:     6293.1s     wall:     6593.5s


                                NWChem Input Module
                                -------------------


 Summary of allocated global arrays
-----------------------------------
  No active global arrays


MA_summarize_allocated_blocks: starting scan ...
MA_summarize_allocated_blocks: scan completed: 0 heap blocks, 0 stack blocks
MA usage statistics:

	allocation statistics:
					      heap	     stack
					      ----	     -----
	current number of blocks	         0	         0
	maximum number of blocks	        16	        14
	current total bytes		         0	         0
	maximum total bytes		    131224	  28332216
	maximum total K-bytes		       132	     28333
	maximum total M-bytes		         1	        29


                                     CITATION
                                     --------
                Please cite the following reference when publishing
                           results obtained with NWChem:

          E. Apra, E. J. Bylaska, W. A. de Jong, N. Govind, K. Kowalski,
       T. P. Straatsma, M. Valiev, H. J. J. van Dam, Y. Alexeev, J. Anchell,
       V. Anisimov, F. W. Aquino, R. Atta-Fynn, J. Autschbach, N. P. Bauman,
     J. C. Becca, D. E. Bernholdt, K. Bhaskaran-Nair, S. Bogatko, P. Borowski,
         J. Boschen, J. Brabec, A. Bruner, E. Cauet, Y. Chen, G. N. Chuev,
      C. J. Cramer, J. Daily, M. J. O. Deegan, T. H. Dunning Jr., M. Dupuis,
   K. G. Dyall, G. I. Fann, S. A. Fischer, A. Fonari, H. Fruchtl, L. Gagliardi,
      J. Garza, N. Gawande, S. Ghosh, K. Glaesemann, A. W. Gotz, J. Hammond,
       V. Helms, E. D. Hermes, K. Hirao, S. Hirata, M. Jacquelin, L. Jensen,
   B. G. Johnson, H. Jonsson, R. A. Kendall, M. Klemm, R. Kobayashi, V. Konkov,
      S. Krishnamoorthy, M. Krishnan, Z. Lin, R. D. Lins, R. J. Littlefield,
      A. J. Logsdail, K. Lopata, W. Ma, A. V. Marenich, J. Martin del Campo,
   D. Mejia-Rodriguez, J. E. Moore, J. M. Mullin, T. Nakajima, D. R. Nascimento,
    J. A. Nichols, P. J. Nichols, J. Nieplocha, A. Otero-de-la-Roza, B. Palmer,
    A. Panyala, T. Pirojsirikul, B. Peng, R. Peverati, J. Pittner, L. Pollack,
   R. M. Richard, P. Sadayappan, G. C. Schatz, W. A. Shelton, D. W. Silverstein,
   D. M. A. Smith, T. A. Soares, D. Song, M. Swart, H. L. Taylor, G. S. Thomas,
            V. Tipparaju, D. G. Truhlar, K. Tsemekhman, T. Van Voorhis,
      A. Vazquez-Mayagoitia, P. Verma, O. Villa, A. Vishnu, K. D. Vogiatzis,
        D. Wang, J. H. Weare, M. J. Williamson, T. L. Windus, K. Wolinski,
        A. T. Wong, Q. Wu, C. Yang, Q. Yu, M. Zacharias, Z. Zhang, Y. Zhao,
                                and R. J. Harrison
                        "NWChem: Past, present, and future
                         J. Chem. Phys. 152, 184102 (2020)
                               doi:10.1063/5.0004997

                                      AUTHORS
                                      -------
  E. Apra, E. J. Bylaska, N. Govind, K. Kowalski, M. Valiev, D. Mejia-Rodriguez,
       A. Kunitsa, N. P. Bauman, A. Panyala, W. A. de Jong, T. P. Straatsma,
   H. J. J. van Dam, D. Wang, T. L. Windus, J. Hammond, J. Autschbach, A. Woods,
    K. Bhaskaran-Nair, J. Brabec, K. Lopata, S. A. Fischer, S. Krishnamoorthy,
     M. Jacquelin, W. Ma, M. Klemm, O. Villa, Y. Chen, V. Anisimov, F. Aquino,
     S. Hirata, M. T. Hackler, E. Hermes, L. Jensen, J. E. Moore, J. C. Becca,
      V. Konjkov, T. Risthaus, M. Malagoli, A. Marenich, A. Otero-de-la-Roza,
        J. Mullin, P. Nichols, R. Peverati, J. Pittner, Y. Zhao, P.-D. Fan,
        A. Fonari, M. J. Williamson, R. J. Harrison, J. R. Rehr, M. Dupuis,
     D. Silverstein, D. M. A. Smith, J. Nieplocha, V. Tipparaju, M. Krishnan,
     B. E. Van Kuiken, A. Vazquez-Mayagoitia, M. Swart, Q. Wu, T. Van Voorhis,
     A. A. Auer, M. Nooijen, L. D. Crosby, E. Brown, G. Cisneros, G. I. Fann,
   H. Fruchtl, J. Garza, K. Hirao, R. A. Kendall, J. A. Nichols, K. Tsemekhman,
    K. Wolinski, J. Anchell, D. E. Bernholdt, P. Borowski, T. Clark, D. Clerc,
   H. Dachsel, M. J. O. Deegan, K. Dyall, D. Elwood, E. Glendening, M. Gutowski,
   A. C. Hess, J. Jaffe, B. G. Johnson, J. Ju, R. Kobayashi, R. Kutteh, Z. Lin,
   R. Littlefield, X. Long, B. Meng, T. Nakajima, S. Niu, L. Pollack, M. Rosing,
   K. Glaesemann, G. Sandrone, M. Stave, H. Taylor, G. Thomas, J. H. van Lenthe,
                               A. T. Wong, Z. Zhang.

 Total times  cpu:     6293.1s     wall:     6594.1s
