export TMOUT=5400
export TMPDIR=/tmp
export PTMPDIR=/tmp/ptmp
 argument  1 = ALA_GLN_3.nw
                                         
                                         


             Northwest Computational Chemistry Package (NWChem) 7.2.0
             --------------------------------------------------------


                    Environmental Molecular Sciences Laboratory
                       Pacific Northwest National Laboratory
                                Richland, WA 99352

                              Copyright (c) 1994-2022
                       Pacific Northwest National Laboratory
                            Battelle Memorial Institute

             NWChem is an open-source computational chemistry package
                        distributed under the terms of the
                      Educational Community License (ECL) 2.0
             A copy of the license is included with this distribution
                              in the LICENSE.TXT file

                                  ACKNOWLEDGMENT
                                  --------------

            This software and its documentation were developed at the
            EMSL at Pacific Northwest National Laboratory, a multiprogram
            national laboratory, operated for the U.S. Department of Energy
            by Battelle under Contract Number DE-AC05-76RL01830. Support
            for this work was provided by the Department of Energy Office
            of Biological and Environmental Research, Office of Basic
            Energy Sciences, and the Office of Advanced Scientific Computing.


           Job information
           ---------------

    hostname        = nova18-23
    program         = /opt/rit/el9/20230413/app/linux-rhel9-x86_64_v3/gcc-11.2.1/nwchem-7.2.0-oxtctbuhfuzyfaoziquq6bki22grib3g/bin/nwchem
    date            = Thu Jun 26 11:38:29 2025

    compiled        = Wed_May_17_23:46:39_2023
    source          = /tmp/root/spack-stage/spack-stage-nwchem-7.2.0-oxtctbuhfuzyfaoziquq6bki22grib3g/spack-src
    nwchem branch   = 7.2.0
    nwchem revision = d0d141fd
    ga revision     = 5.8.0
    use scalapack   = T
    input           = ALA_GLN_3.nw
    prefix          = ALA_GLN_3.
    data base       = ./ALA_GLN_3.db
    status          = startup
    nproc           =        8
    time left       =     -1s



           Memory information
           ------------------

    heap     =   26214394 doubles =    200.0 Mbytes
    stack    =   26214399 doubles =    200.0 Mbytes
    global   =   52428800 doubles =    400.0 Mbytes (distinct from heap & stack)
    total    =  104857593 doubles =    800.0 Mbytes
    verify   = yes
    hardfail = no 


           Directory information
           ---------------------

  0 permanent = .
  0 scratch   = .




                                NWChem Input Module
                                -------------------



 Scaling coordinates for geometry "geometry" by  1.889725989
 (inverse scale =  0.529177249)

 C1  symmetry detected

          ------
          auto-z
          ------
  no constraints, skipping    0.0000000000000000     
  no constraints, skipping    0.0000000000000000     


                             Geometry "geometry" -> ""
                             -------------------------

 Output coordinates in angstroms (scale by  1.889725989 to convert to a.u.)

  No.       Tag          Charge          X              Y              Z
 ---- ---------------- ---------- -------------- -------------- --------------
    1 H                    1.0000    -0.75083989    -5.12630107    -0.18514603
    2 C                    6.0000    -1.15873402    -4.20385267    -0.59308272
    3 H                    1.0000    -2.23584200    -4.17775701    -0.42923395
    4 H                    1.0000    -0.95196460    -4.14625389    -1.66005497
    5 C                    6.0000    -0.52462949    -3.02309068     0.10249946
    6 O                    8.0000    -1.22384166    -2.21407981     0.70565511
    7 N                    7.0000     0.79975905    -2.91701482     0.01743528
    8 H                    1.0000     1.30393944    -3.59589690    -0.52705094
    9 C                    6.0000     1.54786509    -1.79432817     0.57930541
   10 H                    1.0000     1.26464463    -1.68130979     1.62642767
   11 C                    6.0000     3.04590285    -2.12018607     0.52482169
   12 H                    1.0000     3.36323942    -2.25030670    -0.51057009
   13 H                    1.0000     3.61482571    -1.30127210     0.96809778
   14 H                    1.0000     3.24869297    -3.03438526     1.08479223
   15 C                    6.0000     1.21664083    -0.48045419    -0.15687166
   16 O                    8.0000     1.43927057    -0.35953667    -1.36068392
   17 N                    7.0000     0.69564111     0.50670295     0.57541659
   18 H                    1.0000     0.53854011     0.33687949     1.55545397
   19 C                    6.0000     0.24865067     1.80168907     0.04114653
   20 H                    1.0000    -0.20715688     1.63089877    -0.93566929
   21 C                    6.0000    -0.83521978     2.39184319     0.96620704
   22 H                    1.0000    -0.40167279     2.59794334     1.94560774
   23 H                    1.0000    -1.17959988     3.33611396     0.54253021
   24 C                    6.0000    -2.05305132     1.46655865     1.15462377
   25 H                    1.0000    -1.75291233     0.56201676     1.68211457
   26 H                    1.0000    -2.79054878     1.97806525     1.77347794
   27 C                    6.0000    -2.71887289     1.09350611    -0.16695878
   28 O                    8.0000    -3.16510116     1.93324521    -0.92728541
   29 N                    7.0000    -2.80113930    -0.17190255    -0.50852453
   30 H                    1.0000    -3.23843900    -0.36036539    -1.39094151
   31 H                    1.0000    -2.37552611    -0.89557739     0.06180707
   32 C                    6.0000     1.42644233     2.76741505    -0.19844926
   33 O                    8.0000     1.57726504     3.78497332     0.46640462
   34 N                    7.0000     2.31545518     2.43365420    -1.12345134
   35 H                    1.0000     2.19776979     1.56683673    -1.63200381
   36 H                    1.0000     3.09412986     3.04917459    -1.28794265

      Atomic Mass 
      ----------- 

      H                  1.007825
      C                 12.000000
      O                 15.994910
      N                 14.003070


 Effective nuclear repulsion energy (a.u.)    1445.1296333420

            Nuclear Dipole moment (a.u.) 
            ----------------------------
        X                 Y               Z
 ---------------- ---------------- ----------------
    -0.0000000000    -0.0000000000    -0.0000000000



                                Z-matrix (autoz)
                                -------- 

 Units are Angstrom for bonds and degrees for angles

      Type          Name      I     J     K     L     M      Value
      ----------- --------  ----- ----- ----- ----- ----- ----------
    1 Stretch                  1     2                       1.08798
    2 Stretch                  2     3                       1.08981
    3 Stretch                  2     4                       1.08835
    4 Stretch                  2     5                       1.51001
    5 Stretch                  5     6                       1.22768
    6 Stretch                  5     7                       1.33135
    7 Stretch                  7     8                       1.00576
    8 Stretch                  7     9                       1.46143
    9 Stretch                  9    10                       1.09062
   10 Stretch                  9    11                       1.53404
   11 Stretch                  9    15                       1.54205
   12 Stretch                 11    12                       1.09072
   13 Stretch                 11    13                       1.09123
   14 Stretch                 11    14                       1.09108
   15 Stretch                 15    16                       1.23018
   16 Stretch                 15    17                       1.33498
   17 Stretch                 17    18                       1.00697
   18 Stretch                 17    19                       1.47045
   19 Stretch                 19    20                       1.09137
   20 Stretch                 19    21                       1.54233
   21 Stretch                 19    32                       1.54183
   22 Stretch                 21    22                       1.09072
   23 Stretch                 21    23                       1.09076
   24 Stretch                 21    24                       1.54103
   25 Stretch                 24    25                       1.08928
   26 Stretch                 24    26                       1.09019
   27 Stretch                 24    27                       1.52613
   28 Stretch                 27    28                       1.21753
   29 Stretch                 27    29                       1.31328
   30 Stretch                 29    30                       1.00270
   31 Stretch                 29    31                       1.01495
   32 Stretch                 32    33                       1.22483
   33 Stretch                 32    34                       1.32566
   34 Stretch                 34    35                       1.01185
   35 Stretch                 34    36                       1.00611
   36 Bend                     1     2     3               109.54027
   37 Bend                     1     2     4               109.95174
   38 Bend                     1     2     5               109.44058
   39 Bend                     2     5     6               120.16140
   40 Bend                     2     5     7               116.78279
   41 Bend                     3     2     4               109.50542
   42 Bend                     3     2     5               109.09037
   43 Bend                     4     2     5               109.29525
   44 Bend                     5     7     8               118.65165
   45 Bend                     5     7     9               123.08380
   46 Bend                     6     5     7               123.05533
   47 Bend                     7     9    10               108.40944
   48 Bend                     7     9    11               108.84745
   49 Bend                     7     9    15               111.16406
   50 Bend                     8     7     9               118.03851
   51 Bend                     9    11    12               110.07018
   52 Bend                     9    11    13               109.58999
   53 Bend                     9    11    14               109.95336
   54 Bend                     9    15    16               120.79998
   55 Bend                     9    15    17               116.87155
   56 Bend                    10     9    11               108.04151
   57 Bend                    10     9    15               108.31776
   58 Bend                    11     9    15               111.94922
   59 Bend                    12    11    13               108.87183
   60 Bend                    12    11    14               109.46066
   61 Bend                    13    11    14               108.86922
   62 Bend                    15    17    18               118.03731
   63 Bend                    15    17    19               124.78838
   64 Bend                    16    15    17               122.32535
   65 Bend                    17    19    20               108.32083
   66 Bend                    17    19    21               109.43136
   67 Bend                    17    19    32               112.07763
   68 Bend                    18    17    19               117.04666
   69 Bend                    19    21    22               109.36203
   70 Bend                    19    21    23               108.67239
   71 Bend                    19    21    24               113.51234
   72 Bend                    19    32    33               122.01027
   73 Bend                    19    32    34               117.58200
   74 Bend                    20    19    21               107.65006
   75 Bend                    20    19    32               106.13906
   76 Bend                    21    19    32               112.97709
   77 Bend                    21    24    25               109.88056
   78 Bend                    21    24    26               108.80176
   79 Bend                    21    24    27               112.68558
   80 Bend                    22    21    23               108.10133
   81 Bend                    22    21    24               108.52944
   82 Bend                    23    21    24               108.52868
   83 Bend                    24    27    28               122.14665
   84 Bend                    24    27    29               119.21521
   85 Bend                    25    24    26               107.52508
   86 Bend                    25    24    27               109.66854
   87 Bend                    26    24    27               108.12711
   88 Bend                    27    29    30               115.93243
   89 Bend                    27    29    31               120.97110
   90 Bend                    28    27    29               118.63252
   91 Bend                    30    29    31               122.91471
   92 Bend                    32    34    35               119.23410
   93 Bend                    32    34    36               118.62501
   94 Bend                    33    32    34               120.35422
   95 Bend                    35    34    36               122.13636
   96 Torsion                  1     2     5     6        -121.07251
   97 Torsion                  1     2     5     7          59.17107
   98 Torsion                  2     5     7     8           2.35100
   99 Torsion                  2     5     7     9         176.77554
  100 Torsion                  3     2     5     6          -1.23861
  101 Torsion                  3     2     5     7         179.00497
  102 Torsion                  4     2     5     6         118.46567
  103 Torsion                  4     2     5     7         -61.29075
  104 Torsion                  5     7     9    10          52.51423
  105 Torsion                  5     7     9    11         169.80578
  106 Torsion                  5     7     9    15         -66.43638
  107 Torsion                  6     5     7     8        -177.39773
  108 Torsion                  6     5     7     9          -2.97318
  109 Torsion                  7     9    11    12          61.91104
  110 Torsion                  7     9    11    13        -178.38304
  111 Torsion                  7     9    11    14         -58.75241
  112 Torsion                  7     9    15    16         -60.62323
  113 Torsion                  7     9    15    17         120.00466
  114 Torsion                  8     7     9    10        -133.02903
  115 Torsion                  8     7     9    11         -15.73748
  116 Torsion                  8     7     9    15         108.02036
  117 Torsion                  9    15    17    18          -0.74522
  118 Torsion                  9    15    17    19        -176.50613
  119 Torsion                 10     9    11    12         179.43623
  120 Torsion                 10     9    11    13         -60.85785
  121 Torsion                 10     9    11    14          58.77278
  122 Torsion                 10     9    15    16        -179.62879
  123 Torsion                 10     9    15    17           0.99910
  124 Torsion                 11     9    15    16          61.34898
  125 Torsion                 11     9    15    17        -118.02312
  126 Torsion                 12    11     9    15         -61.37858
  127 Torsion                 13    11     9    15          58.32734
  128 Torsion                 14    11     9    15         177.95797
  129 Torsion                 15    17    19    20          36.95303
  130 Torsion                 15    17    19    21         154.04971
  131 Torsion                 15    17    19    32         -79.80894
  132 Torsion                 16    15    17    18         179.89302
  133 Torsion                 16    15    17    19           4.13212
  134 Torsion                 17    19    21    22          63.93209
  135 Torsion                 17    19    21    23        -178.26843
  136 Torsion                 17    19    21    24         -57.41556
  137 Torsion                 17    19    32    33        -112.26714
  138 Torsion                 17    19    32    34          65.07944
  139 Torsion                 18    17    19    20        -138.84599
  140 Torsion                 18    17    19    21         -21.74931
  141 Torsion                 18    17    19    32         104.39204
  142 Torsion                 19    21    24    25          65.57329
  143 Torsion                 19    21    24    26        -176.95110
  144 Torsion                 19    21    24    27         -57.04760
  145 Torsion                 19    32    34    35          -0.31025
  146 Torsion                 19    32    34    36        -179.55247
  147 Torsion                 20    19    21    22        -178.54946
  148 Torsion                 20    19    21    23         -60.74998
  149 Torsion                 20    19    21    24          60.10289
  150 Torsion                 20    19    32    33         129.66625
  151 Torsion                 20    19    32    34         -52.98717
  152 Torsion                 21    19    32    33          11.92120
  153 Torsion                 21    19    32    34        -170.73222
  154 Torsion                 21    24    27    28         -58.68182
  155 Torsion                 21    24    27    29         120.44251
  156 Torsion                 22    21    19    32         -61.69357
  157 Torsion                 22    21    24    25         -56.23929
  158 Torsion                 22    21    24    26          61.23632
  159 Torsion                 22    21    24    27        -178.86018
  160 Torsion                 23    21    19    32          56.10592
  161 Torsion                 23    21    24    25        -173.49300
  162 Torsion                 23    21    24    26         -56.01740
  163 Torsion                 23    21    24    27          63.88610
  164 Torsion                 24    21    19    32         176.95879
  165 Torsion                 24    27    29    30        -179.33078
  166 Torsion                 24    27    29    31          -4.09153
  167 Torsion                 25    24    27    28         178.57845
  168 Torsion                 25    24    27    29          -2.29721
  169 Torsion                 26    24    27    28          61.61032
  170 Torsion                 26    24    27    29        -119.26534
  171 Torsion                 28    27    29    30          -0.17549
  172 Torsion                 28    27    29    31         175.06376
  173 Torsion                 33    32    34    35         177.08238
  174 Torsion                 33    32    34    36          -2.15984


            XYZ format geometry
            -------------------
    36
 geometry
 H                    -0.75083989    -5.12630107    -0.18514603
 C                    -1.15873402    -4.20385267    -0.59308272
 H                    -2.23584200    -4.17775701    -0.42923395
 H                    -0.95196460    -4.14625389    -1.66005497
 C                    -0.52462949    -3.02309068     0.10249946
 O                    -1.22384166    -2.21407981     0.70565511
 N                     0.79975905    -2.91701482     0.01743528
 H                     1.30393944    -3.59589690    -0.52705094
 C                     1.54786509    -1.79432817     0.57930541
 H                     1.26464463    -1.68130979     1.62642767
 C                     3.04590285    -2.12018607     0.52482169
 H                     3.36323942    -2.25030670    -0.51057009
 H                     3.61482571    -1.30127210     0.96809778
 H                     3.24869297    -3.03438526     1.08479223
 C                     1.21664083    -0.48045419    -0.15687166
 O                     1.43927057    -0.35953667    -1.36068392
 N                     0.69564111     0.50670295     0.57541659
 H                     0.53854011     0.33687949     1.55545397
 C                     0.24865067     1.80168907     0.04114653
 H                    -0.20715688     1.63089877    -0.93566929
 C                    -0.83521978     2.39184319     0.96620704
 H                    -0.40167279     2.59794334     1.94560774
 H                    -1.17959988     3.33611396     0.54253021
 C                    -2.05305132     1.46655865     1.15462377
 H                    -1.75291233     0.56201676     1.68211457
 H                    -2.79054878     1.97806525     1.77347794
 C                    -2.71887289     1.09350611    -0.16695878
 O                    -3.16510116     1.93324521    -0.92728541
 N                    -2.80113930    -0.17190255    -0.50852453
 H                    -3.23843900    -0.36036539    -1.39094151
 H                    -2.37552611    -0.89557739     0.06180707
 C                     1.42644233     2.76741505    -0.19844926
 O                     1.57726504     3.78497332     0.46640462
 N                     2.31545518     2.43365420    -1.12345134
 H                     2.19776979     1.56683673    -1.63200381
 H                     3.09412986     3.04917459    -1.28794265

 ==============================================================================
                                internuclear distances
 ------------------------------------------------------------------------------
       center one      |      center two      | atomic units |  angstroms
 ------------------------------------------------------------------------------
    2 C                |   1 H                |     2.05598  |     1.08798
    3 H                |   2 C                |     2.05945  |     1.08981
    4 H                |   2 C                |     2.05668  |     1.08835
    5 C                |   2 C                |     2.85350  |     1.51001
    6 O                |   5 C                |     2.31997  |     1.22768
    7 N                |   5 C                |     2.51589  |     1.33135
    8 H                |   7 N                |     1.90060  |     1.00576
    9 C                |   7 N                |     2.76171  |     1.46143
   10 H                |   9 C                |     2.06097  |     1.09062
   11 C                |   9 C                |     2.89891  |     1.53404
   12 H                |  11 C                |     2.06116  |     1.09072
   13 H                |  11 C                |     2.06213  |     1.09123
   14 H                |  11 C                |     2.06184  |     1.09108
   15 C                |   9 C                |     2.91406  |     1.54205
   16 O                |  15 C                |     2.32471  |     1.23018
   17 N                |  15 C                |     2.52274  |     1.33498
   18 H                |  17 N                |     1.90290  |     1.00697
   19 C                |  17 N                |     2.77875  |     1.47045
   20 H                |  19 C                |     2.06240  |     1.09137
   21 C                |  19 C                |     2.91459  |     1.54233
   22 H                |  21 C                |     2.06116  |     1.09072
   23 H                |  21 C                |     2.06123  |     1.09076
   24 C                |  21 C                |     2.91212  |     1.54103
   25 H                |  24 C                |     2.05844  |     1.08928
   26 H                |  24 C                |     2.06017  |     1.09019
   27 C                |  24 C                |     2.88396  |     1.52613
   28 O                |  27 C                |     2.30080  |     1.21753
   29 N                |  27 C                |     2.48173  |     1.31328
   30 H                |  29 N                |     1.89483  |     1.00270
   31 H                |  29 N                |     1.91798  |     1.01495
   32 C                |  19 C                |     2.91363  |     1.54183
   33 O                |  32 C                |     2.31459  |     1.22483
   34 N                |  32 C                |     2.50513  |     1.32566
   35 H                |  34 N                |     1.91213  |     1.01185
   36 H                |  34 N                |     1.90127  |     1.00611
 ------------------------------------------------------------------------------
                         number of included internuclear distances:         35
 ==============================================================================



 ==============================================================================
                                 internuclear angles
 ------------------------------------------------------------------------------
        center 1       |       center 2       |       center 3       |  degrees
 ------------------------------------------------------------------------------
    1 H                |   2 C                |   3 H                |   109.54
    1 H                |   2 C                |   4 H                |   109.95
    1 H                |   2 C                |   5 C                |   109.44
    3 H                |   2 C                |   4 H                |   109.51
    3 H                |   2 C                |   5 C                |   109.09
    4 H                |   2 C                |   5 C                |   109.30
    2 C                |   5 C                |   6 O                |   120.16
    2 C                |   5 C                |   7 N                |   116.78
    6 O                |   5 C                |   7 N                |   123.06
    5 C                |   7 N                |   8 H                |   118.65
    5 C                |   7 N                |   9 C                |   123.08
    8 H                |   7 N                |   9 C                |   118.04
    7 N                |   9 C                |  10 H                |   108.41
    7 N                |   9 C                |  11 C                |   108.85
    7 N                |   9 C                |  15 C                |   111.16
   10 H                |   9 C                |  11 C                |   108.04
   10 H                |   9 C                |  15 C                |   108.32
   11 C                |   9 C                |  15 C                |   111.95
    9 C                |  11 C                |  12 H                |   110.07
    9 C                |  11 C                |  13 H                |   109.59
    9 C                |  11 C                |  14 H                |   109.95
   12 H                |  11 C                |  13 H                |   108.87
   12 H                |  11 C                |  14 H                |   109.46
   13 H                |  11 C                |  14 H                |   108.87
    9 C                |  15 C                |  16 O                |   120.80
    9 C                |  15 C                |  17 N                |   116.87
   16 O                |  15 C                |  17 N                |   122.33
   15 C                |  17 N                |  18 H                |   118.04
   15 C                |  17 N                |  19 C                |   124.79
   18 H                |  17 N                |  19 C                |   117.05
   17 N                |  19 C                |  20 H                |   108.32
   17 N                |  19 C                |  21 C                |   109.43
   17 N                |  19 C                |  32 C                |   112.08
   20 H                |  19 C                |  21 C                |   107.65
   20 H                |  19 C                |  32 C                |   106.14
   21 C                |  19 C                |  32 C                |   112.98
   19 C                |  21 C                |  22 H                |   109.36
   19 C                |  21 C                |  23 H                |   108.67
   19 C                |  21 C                |  24 C                |   113.51
   22 H                |  21 C                |  23 H                |   108.10
   22 H                |  21 C                |  24 C                |   108.53
   23 H                |  21 C                |  24 C                |   108.53
   21 C                |  24 C                |  25 H                |   109.88
   21 C                |  24 C                |  26 H                |   108.80
   21 C                |  24 C                |  27 C                |   112.69
   25 H                |  24 C                |  26 H                |   107.53
   25 H                |  24 C                |  27 C                |   109.67
   26 H                |  24 C                |  27 C                |   108.13
   24 C                |  27 C                |  28 O                |   122.15
   24 C                |  27 C                |  29 N                |   119.22
   28 O                |  27 C                |  29 N                |   118.63
   27 C                |  29 N                |  30 H                |   115.93
   27 C                |  29 N                |  31 H                |   120.97
   30 H                |  29 N                |  31 H                |   122.91
   19 C                |  32 C                |  33 O                |   122.01
   19 C                |  32 C                |  34 N                |   117.58
   33 O                |  32 C                |  34 N                |   120.35
   32 C                |  34 N                |  35 H                |   119.23
   32 C                |  34 N                |  36 H                |   118.63
   35 H                |  34 N                |  36 H                |   122.14
 ------------------------------------------------------------------------------
                            number of included internuclear angles:         60
 ==============================================================================



  library name resolved from: environment
  library file name is: </opt/rit/el9/20230413/app/linux-rhel9-x86_64_v3/gcc-11.2.1/nwchem-7.2.0-oxtctbuhfuzyfaoziquq6bki22grib3g/share/nwchem/libraries/>
  


 Summary of "ao basis" -> "" (cartesian)
 ------------------------------------------------------------------------------
       Tag                 Description            Shells   Functions and Types
 ---------------- ------------------------------  ------  ---------------------
 *                        aug-cc-pvdz                 on all atoms 


                      Basis "ao basis" -> "ao basis" (cartesian)
                      -----
  H (Hydrogen)
  ------------
            Exponent  Coefficients 
       -------------- ---------------------------------------------------------
  1 S  1.30100000E+01  0.019685
  1 S  1.96200000E+00  0.137977
  1 S  4.44600000E-01  0.478148

  2 S  1.22000000E-01  1.000000

  3 S  2.97400000E-02  1.000000

  4 P  7.27000000E-01  1.000000

  5 P  1.41000000E-01  1.000000

  C (Carbon)
  ----------
            Exponent  Coefficients 
       -------------- ---------------------------------------------------------
  1 S  6.66500000E+03  0.000692
  1 S  1.00000000E+03  0.005329
  1 S  2.28000000E+02  0.027077
  1 S  6.47100000E+01  0.101718
  1 S  2.10600000E+01  0.274740
  1 S  7.49500000E+00  0.448564
  1 S  2.79700000E+00  0.285074
  1 S  5.21500000E-01  0.015204

  2 S  6.66500000E+03 -0.000146
  2 S  1.00000000E+03 -0.001154
  2 S  2.28000000E+02 -0.005725
  2 S  6.47100000E+01 -0.023312
  2 S  2.10600000E+01 -0.063955
  2 S  7.49500000E+00 -0.149981
  2 S  2.79700000E+00 -0.127262
  2 S  5.21500000E-01  0.544529

  3 S  1.59600000E-01  1.000000

  4 S  4.69000000E-02  1.000000

  5 P  9.43900000E+00  0.038109
  5 P  2.00200000E+00  0.209480
  5 P  5.45600000E-01  0.508557

  6 P  1.51700000E-01  1.000000

  7 P  4.04100000E-02  1.000000

  8 D  5.50000000E-01  1.000000

  9 D  1.51000000E-01  1.000000

  O (Oxygen)
  ----------
            Exponent  Coefficients 
       -------------- ---------------------------------------------------------
  1 S  1.17200000E+04  0.000710
  1 S  1.75900000E+03  0.005470
  1 S  4.00800000E+02  0.027837
  1 S  1.13700000E+02  0.104800
  1 S  3.70300000E+01  0.283062
  1 S  1.32700000E+01  0.448719
  1 S  5.02500000E+00  0.270952
  1 S  1.01300000E+00  0.015458

  2 S  1.17200000E+04 -0.000160
  2 S  1.75900000E+03 -0.001263
  2 S  4.00800000E+02 -0.006267
  2 S  1.13700000E+02 -0.025716
  2 S  3.70300000E+01 -0.070924
  2 S  1.32700000E+01 -0.165411
  2 S  5.02500000E+00 -0.116955
  2 S  1.01300000E+00  0.557368

  3 S  3.02300000E-01  1.000000

  4 S  7.89600000E-02  1.000000

  5 P  1.77000000E+01  0.043018
  5 P  3.85400000E+00  0.228913
  5 P  1.04600000E+00  0.508728

  6 P  2.75300000E-01  1.000000

  7 P  6.85600000E-02  1.000000

  8 D  1.18500000E+00  1.000000

  9 D  3.32000000E-01  1.000000

  N (Nitrogen)
  ------------
            Exponent  Coefficients 
       -------------- ---------------------------------------------------------
  1 S  9.04600000E+03  0.000700
  1 S  1.35700000E+03  0.005389
  1 S  3.09300000E+02  0.027406
  1 S  8.77300000E+01  0.103207
  1 S  2.85600000E+01  0.278723
  1 S  1.02100000E+01  0.448540
  1 S  3.83800000E+00  0.278238
  1 S  7.46600000E-01  0.015440

  2 S  9.04600000E+03 -0.000153
  2 S  1.35700000E+03 -0.001208
  2 S  3.09300000E+02 -0.005992
  2 S  8.77300000E+01 -0.024544
  2 S  2.85600000E+01 -0.067459
  2 S  1.02100000E+01 -0.158078
  2 S  3.83800000E+00 -0.121831
  2 S  7.46600000E-01  0.549003

  3 S  2.24800000E-01  1.000000

  4 S  6.12400000E-02  1.000000

  5 P  1.35500000E+01  0.039919
  5 P  2.91700000E+00  0.217169
  5 P  7.97300000E-01  0.510319

  6 P  2.18500000E-01  1.000000

  7 P  5.61100000E-02  1.000000

  8 D  8.17000000E-01  1.000000

  9 D  2.30000000E-01  1.000000



 Summary of "ao basis" -> "ao basis" (cartesian)
 ------------------------------------------------------------------------------
       Tag                 Description            Shells   Functions and Types
 ---------------- ------------------------------  ------  ---------------------
 H                        aug-cc-pvdz                5        9   3s2p
 C                        aug-cc-pvdz                9       25   4s3p2d
 O                        aug-cc-pvdz                9       25   4s3p2d
 N                        aug-cc-pvdz                9       25   4s3p2d


                                 NWChem SCF Module
                                 -----------------



  ao basis        = "ao basis"
  functions       =   612
  atoms           =    36
  closed shells   =    69
  open shells     =     0
  charge          =   0.00
  wavefunction    = RHF 
  input vectors   = atomic
  output vectors  = ./ALA_GLN_3.movecs
  use symmetry    = F
  symmetry adapt  = F


 Summary of "ao basis" -> "ao basis" (cartesian)
 ------------------------------------------------------------------------------
       Tag                 Description            Shells   Functions and Types
 ---------------- ------------------------------  ------  ---------------------
 H                        aug-cc-pvdz                5        9   3s2p
 C                        aug-cc-pvdz                9       25   4s3p2d
 O                        aug-cc-pvdz                9       25   4s3p2d
 N                        aug-cc-pvdz                9       25   4s3p2d



 Forming initial guess at       1.2s


 !! The overlap matrix has   6 vectors deemed linearly dependent with
    eigenvalues:
 2.75D-06 4.59D-06 6.31D-06 7.18D-06 8.41D-06 9.84D-06


      Superposition of Atomic Density Guess
      -------------------------------------

 Sum of atomic energies:        -901.93634758

      Non-variational initial energy
      ------------------------------

 Total energy =    -913.566565
 1-e energy   =   -4098.784682
 2-e energy   =    1740.088484
 HOMO         =      -0.310317
 LUMO         =       0.008629


 Starting SCF solution at     306.6s



 ----------------------------------------------
         Quadratically convergent ROHF

 Convergence threshold     :          1.000E-04
 Maximum no. of iterations :           30
 Final Fock-matrix accuracy:          1.000E-10
 ----------------------------------------------


              iter       energy          gnorm     gmax       time
             ----- ------------------- --------- --------- --------
                 1     -906.1952308577  2.66D+00  1.75D-01    583.7
                 2     -906.5685616950  8.75D-01  5.00D-02   1223.2
                 3     -906.6353279185  6.95D-02  3.46D-03   2095.5
                 4     -906.6360703950  4.37D-03  3.44D-04   3282.4
                 5     -906.6360738477  9.66D-06  7.64D-07   5174.1


       Final RHF  results 
       ------------------ 

         Total SCF energy =   -906.636073847746
      One-electron energy =  -4111.576001928550
      Two-electron energy =   1759.810294738797
 Nuclear repulsion energy =   1445.129633342007

        Time for solution =   4875.8s


             Final eigenvalues
             -----------------

              1      
    1  -20.5579
    2  -20.5490
    3  -20.5173
    4  -20.4994
    5  -15.6297
    6  -15.6203
    7  -15.5804
    8  -15.5666
    9  -11.3876
   10  -11.3797
   11  -11.3499
   12  -11.3331
   13  -11.3235
   14  -11.2976
   15  -11.2662
   16  -11.2657
   17  -11.2435
   18  -11.2426
   19   -1.4220
   20   -1.4074
   21   -1.3780
   22   -1.3714
   23   -1.2781
   24   -1.2629
   25   -1.2097
   26   -1.2005
   27   -1.0944
   28   -1.0713
   29   -1.0188
   30   -0.9902
   31   -0.9146
   32   -0.8704
   33   -0.8449
   34   -0.8195
   35   -0.7906
   36   -0.7712
   37   -0.7429
   38   -0.7365
   39   -0.7248
   40   -0.7064
   41   -0.6914
   42   -0.6812
   43   -0.6730
   44   -0.6556
   45   -0.6458
   46   -0.6274
   47   -0.6152
   48   -0.6101
   49   -0.5985
   50   -0.5926
   51   -0.5861
   52   -0.5754
   53   -0.5660
   54   -0.5644
   55   -0.5554
   56   -0.5481
   57   -0.5441
   58   -0.5348
   59   -0.5092
   60   -0.4985
   61   -0.4957
   62   -0.4643
   63   -0.4574
   64   -0.4409
   65   -0.4239
   66   -0.4026
   67   -0.4000
   68   -0.3952
   69   -0.3881
   70    0.0173
   71    0.0295
   72    0.0340
   73    0.0385
   74    0.0477
   75    0.0501
   76    0.0536
   77    0.0574
   78    0.0623
   79    0.0718

                       ROHF Final Molecular Orbital Analysis
                       -------------------------------------

 Vector   19  Occ=2.000000D+00  E=-1.422011D+00
              MO Center= -5.3D-01, -2.3D+00,  3.2D-01, r^2= 2.0D+00
   Bfn.  Coefficient  Atom+Function         Bfn.  Coefficient  Atom+Function  
  ----- ------------  ---------------      ----- ------------  ---------------
    80      0.337875   6 O  s                79      0.326662   6 O  s         
    54      0.229604   5 C  s                12      0.191616   2 C  s         

 Vector   20  Occ=2.000000D+00  E=-1.407363D+00
              MO Center=  1.0D+00, -4.9D-01, -6.3D-01, r^2= 2.4D+00
   Bfn.  Coefficient  Atom+Function         Bfn.  Coefficient  Atom+Function  
  ----- ------------  ---------------      ----- ------------  ---------------
   250      0.353971  16 O  s               249      0.326996  16 O  s         
   224      0.229139  15 C  s         

 Vector   21  Occ=2.000000D+00  E=-1.378046D+00
              MO Center=  1.6D+00,  3.2D+00,  9.1D-02, r^2= 1.3D+00
   Bfn.  Coefficient  Atom+Function         Bfn.  Coefficient  Atom+Function  
  ----- ------------  ---------------      ----- ------------  ---------------
   547      0.371947  33 O  s               546      0.349201  33 O  s         
   521      0.244095  32 C  s         

 Vector   22  Occ=2.000000D+00  E=-1.371423D+00
              MO Center= -3.0D+00,  1.5D+00, -6.5D-01, r^2= 9.2D-01
   Bfn.  Coefficient  Atom+Function         Bfn.  Coefficient  Atom+Function  
  ----- ------------  ---------------      ----- ------------  ---------------
   454      0.370607  28 O  s               453      0.347938  28 O  s         
   428      0.250499  27 C  s         

 Vector   23  Occ=2.000000D+00  E=-1.278081D+00
              MO Center=  5.3D-01, -2.7D+00,  1.2D-01, r^2= 1.8D+00
   Bfn.  Coefficient  Atom+Function         Bfn.  Coefficient  Atom+Function  
  ----- ------------  ---------------      ----- ------------  ---------------
   105      0.431691   7 N  s               104      0.342808   7 N  s         
    80     -0.215570   6 O  s                79     -0.180489   6 O  s         
    57      0.177536   5 C  px              128      0.156307   8 H  s         
   139     -0.156647   9 C  s         

 Vector   24  Occ=2.000000D+00  E=-1.262889D+00
              MO Center=  7.8D-01,  4.4D-01,  2.5D-01, r^2= 2.0D+00
   Bfn.  Coefficient  Atom+Function         Bfn.  Coefficient  Atom+Function  
  ----- ------------  ---------------      ----- ------------  ---------------
   275      0.385297  17 N  s               274      0.344014  17 N  s         
   250     -0.219698  16 O  s               249     -0.173959  16 O  s         
   229      0.161271  15 C  pz              298      0.158775  18 H  s         

 Vector   25  Occ=2.000000D+00  E=-1.209727D+00
              MO Center=  2.1D+00,  2.6D+00, -7.9D-01, r^2= 1.5D+00
   Bfn.  Coefficient  Atom+Function         Bfn.  Coefficient  Atom+Function  
  ----- ------------  ---------------      ----- ------------  ---------------
   572      0.392477  34 N  s               571      0.368655  34 N  s         
   547     -0.214425  33 O  s               546     -0.179687  33 O  s         
   595      0.164419  35 H  s               526     -0.157523  32 C  pz        
   604      0.157207  36 H  s         

 Vector   26  Occ=2.000000D+00  E=-1.200525D+00
              MO Center= -2.8D+00,  3.0D-01, -4.8D-01, r^2= 1.3D+00
   Bfn.  Coefficient  Atom+Function         Bfn.  Coefficient  Atom+Function  
  ----- ------------  ---------------      ----- ------------  ---------------
   478      0.365838  29 N  s               479      0.364596  29 N  s         
   454     -0.235483  28 O  s               432     -0.218423  27 C  py        
   453     -0.194745  28 O  s               386     -0.183447  24 C  s         
   511      0.159745  31 H  s               502      0.156983  30 H  s         

 Vector   27  Occ=2.000000D+00  E=-1.094398D+00
              MO Center=  7.0D-01, -9.0D-01,  3.7D-01, r^2= 7.6D+00
   Bfn.  Coefficient  Atom+Function         Bfn.  Coefficient  Atom+Function  
  ----- ------------  ---------------      ----- ------------  ---------------
   138      0.208483   9 C  s               172      0.163280  11 C  s         

 Vector   28  Occ=2.000000D+00  E=-1.071325D+00
              MO Center= -2.4D-01,  2.6D-01,  5.6D-01, r^2= 8.7D+00
   Bfn.  Coefficient  Atom+Function         Bfn.  Coefficient  Atom+Function  
  ----- ------------  ---------------      ----- ------------  ---------------
   342      0.214085  21 C  s               385      0.187173  24 C  s         
   343      0.176697  21 C  s         

 Vector   29  Occ=2.000000D+00  E=-1.018766D+00
              MO Center= -2.4D-01, -3.4D+00, -2.3D-01, r^2= 5.2D+00
   Bfn.  Coefficient  Atom+Function         Bfn.  Coefficient  Atom+Function  
  ----- ------------  ---------------      ----- ------------  ---------------
    11      0.317194   2 C  s               172      0.157315  11 C  s         
    55      0.150983   5 C  s         

 Vector   30  Occ=2.000000D+00  E=-9.902462D-01
              MO Center= -3.3D-01,  1.1D+00,  4.2D-01, r^2= 6.2D+00
   Bfn.  Coefficient  Atom+Function         Bfn.  Coefficient  Atom+Function  
  ----- ------------  ---------------      ----- ------------  ---------------
   385     -0.235191  24 C  s               308      0.227664  19 C  s         
   386     -0.219129  24 C  s               139     -0.165850   9 C  s         

 Vector   31  Occ=2.000000D+00  E=-9.145580D-01
              MO Center=  1.5D+00, -1.4D+00,  3.7D-01, r^2= 6.6D+00
   Bfn.  Coefficient  Atom+Function         Bfn.  Coefficient  Atom+Function  
  ----- ------------  ---------------      ----- ------------  ---------------
   139      0.300933   9 C  s               145      0.244885   9 C  py        
   172     -0.234469  11 C  s               225     -0.233194  15 C  s         
   387      0.218014  24 C  s               231      0.215286  15 C  py        
   144     -0.201527   9 C  px              146     -0.201325   9 C  pz        
   276      0.198367  17 N  s               138      0.185929   9 C  s         

 Vector   32  Occ=2.000000D+00  E=-8.703689D-01
              MO Center= -5.2D-01,  1.7D+00,  3.1D-01, r^2= 6.1D+00
   Bfn.  Coefficient  Atom+Function         Bfn.  Coefficient  Atom+Function  
  ----- ------------  ---------------      ----- ------------  ---------------
   386      0.319113  24 C  s               309      0.298905  19 C  s         
   342     -0.231825  21 C  s               314      0.194245  19 C  px        
   343     -0.175761  21 C  s               393     -0.164391  24 C  pz        
   366     -0.151237  22 H  s         

 Vector   33  Occ=2.000000D+00  E=-8.449351D-01
              MO Center=  5.5D-01, -2.0D+00,  9.2D-02, r^2= 5.8D+00
   Bfn.  Coefficient  Atom+Function         Bfn.  Coefficient  Atom+Function  
  ----- ------------  ---------------      ----- ------------  ---------------
   107      0.307841   7 N  px              139     -0.199516   9 C  s         
    54     -0.196480   5 C  s               128      0.187091   8 H  s         
   105      0.161806   7 N  s               309     -0.156664  19 C  s         
    57     -0.151135   5 C  px        

 Vector   34  Occ=2.000000D+00  E=-8.195032D-01
              MO Center=  6.0D-01, -7.2D-01,  2.2D-01, r^2= 5.9D+00
   Bfn.  Coefficient  Atom+Function         Bfn.  Coefficient  Atom+Function  
  ----- ------------  ---------------      ----- ------------  ---------------
   309      0.216496  19 C  s               128      0.212010   8 H  s         
   343      0.205837  21 C  s               279     -0.204665  17 N  pz        
   298     -0.185016  18 H  s               275     -0.169591  17 N  s         
    55     -0.166585   5 C  s               224      0.160346  15 C  s         
   105      0.154349   7 N  s               278     -0.152523  17 N  py        

 Vector   35  Occ=2.000000D+00  E=-7.905997D-01
              MO Center=  6.9D-01,  1.6D+00, -2.9D-01, r^2= 6.5D+00
   Bfn.  Coefficient  Atom+Function         Bfn.  Coefficient  Atom+Function  
  ----- ------------  ---------------      ----- ------------  ---------------
   225      0.215097  15 C  s               279     -0.194825  17 N  pz        
   521     -0.194191  32 C  s               576     -0.192767  34 N  pz        
   574      0.185564  34 N  px              298     -0.176528  18 H  s         
   522     -0.175581  32 C  s               547      0.153375  33 O  s         
   604      0.150112  36 H  s         

 Vector   36  Occ=2.000000D+00  E=-7.711744D-01
              MO Center= -1.5D+00,  3.9D-01, -9.6D-02, r^2= 6.8D+00
   Bfn.  Coefficient  Atom+Function         Bfn.  Coefficient  Atom+Function  
  ----- ------------  ---------------      ----- ------------  ---------------
   482      0.306618  29 N  py              343      0.204108  21 C  s         
   511     -0.189372  31 H  s               428      0.183789  27 C  s         
   430     -0.157230  27 C  s               432     -0.153890  27 C  py        

 Vector   37  Occ=2.000000D+00  E=-7.429431D-01
              MO Center=  4.2D-01, -7.6D-01,  1.0D-02, r^2= 7.3D+00
   Bfn.  Coefficient  Atom+Function         Bfn.  Coefficient  Atom+Function  
  ----- ------------  ---------------      ----- ------------  ---------------
   225      0.294653  15 C  s               145     -0.267062   9 C  py        
   228      0.220650  15 C  py              142     -0.188427   9 C  py        
   163      0.181706  10 H  s               139     -0.178517   9 C  s         
    55      0.160663   5 C  s               109      0.160995   7 N  pz        
   275     -0.152968  17 N  s         

 Vector   38  Occ=2.000000D+00  E=-7.365466D-01
              MO Center=  1.6D+00,  1.6D+00, -6.3D-01, r^2= 4.8D+00
   Bfn.  Coefficient  Atom+Function         Bfn.  Coefficient  Atom+Function  
  ----- ------------  ---------------      ----- ------------  ---------------
   575      0.297788  34 N  py              595     -0.284562  35 H  s         
   225      0.183583  15 C  s               524      0.168807  32 C  px        
   604      0.165696  36 H  s               596     -0.160870  35 H  s         
   576      0.153679  34 N  pz              315     -0.152711  19 C  py        

 Vector   39  Occ=2.000000D+00  E=-7.247935D-01
              MO Center= -1.2D+00, -9.7D-01,  3.4D-02, r^2= 7.6D+00
   Bfn.  Coefficient  Atom+Function         Bfn.  Coefficient  Atom+Function  
  ----- ------------  ---------------      ----- ------------  ---------------
   483      0.214253  29 N  pz              502     -0.208346  30 H  s         
    83      0.193968   6 O  py               57      0.183121   5 C  px        
   511      0.171987  31 H  s         

 Vector   40  Occ=2.000000D+00  E=-7.064164D-01
              MO Center=  4.4D-01, -1.9D+00,  2.1D-02, r^2= 7.9D+00
   Bfn.  Coefficient  Atom+Function         Bfn.  Coefficient  Atom+Function  
  ----- ------------  ---------------      ----- ------------  ---------------
   143     -0.193420   9 C  pz              108      0.191136   7 N  py        
   162     -0.177379  10 H  s         

 Vector   41  Occ=2.000000D+00  E=-6.914202D-01
              MO Center= -8.7D-01, -1.2D+00,  8.7D-02, r^2= 7.8D+00
   Bfn.  Coefficient  Atom+Function         Bfn.  Coefficient  Atom+Function  
  ----- ------------  ---------------      ----- ------------  ---------------
    80      0.203640   6 O  s               483     -0.196309  29 N  pz        
   145      0.176625   9 C  py              511     -0.172243  31 H  s         
    12     -0.171336   2 C  s                84      0.170600   6 O  pz        
   386      0.167095  24 C  s                57      0.166213   5 C  px        
   343     -0.164934  21 C  s               502      0.165339  30 H  s         

 Vector   42  Occ=2.000000D+00  E=-6.811617D-01
              MO Center=  1.6D-01,  8.9D-01, -1.0D-02, r^2= 6.6D+00
   Bfn.  Coefficient  Atom+Function         Bfn.  Coefficient  Atom+Function  
  ----- ------------  ---------------      ----- ------------  ---------------
   430      0.194408  27 C  s               332     -0.177434  20 H  s         
   278      0.170786  17 N  py              254      0.162790  16 O  pz        
   313      0.162778  19 C  pz              311      0.161775  19 C  px        

 Vector   43  Occ=2.000000D+00  E=-6.730227D-01
              MO Center=  1.0D+00,  2.0D+00, -1.3D-01, r^2= 7.3D+00
   Bfn.  Coefficient  Atom+Function         Bfn.  Coefficient  Atom+Function  
  ----- ------------  ---------------      ----- ------------  ---------------
   315      0.237820  19 C  py              604      0.229939  36 H  s         
   574      0.222980  34 N  px              309      0.220125  19 C  s         
   524     -0.184396  32 C  px              547     -0.179390  33 O  s         
   522     -0.176851  32 C  s               550     -0.174915  33 O  py        
   312      0.170059  19 C  py              526      0.168201  32 C  pz        

 Vector   44  Occ=2.000000D+00  E=-6.555874D-01
              MO Center= -1.6D+00,  1.1D+00,  6.1D-02, r^2= 6.1D+00
   Bfn.  Coefficient  Atom+Function         Bfn.  Coefficient  Atom+Function  
  ----- ------------  ---------------      ----- ------------  ---------------
   432      0.227592  27 C  py              458      0.222369  28 O  pz        
   409     -0.202944  25 H  s               390     -0.169973  24 C  pz        
   454     -0.161273  28 O  s         

 Vector   45  Occ=2.000000D+00  E=-6.458152D-01
              MO Center= -3.3D-01, -2.5D+00, -3.0D-01, r^2= 7.0D+00
   Bfn.  Coefficient  Atom+Function         Bfn.  Coefficient  Atom+Function  
  ----- ------------  ---------------      ----- ------------  ---------------
   139      0.280690   9 C  s               225     -0.271185  15 C  s         
    16     -0.214207   2 C  pz               59     -0.198685   5 C  pz        
     1     -0.189041   1 H  s                44      0.186909   4 H  s         
   254     -0.174191  16 O  pz               15      0.159125   2 C  py        

 Vector   46  Occ=2.000000D+00  E=-6.273814D-01
              MO Center=  1.3D+00, -1.1D+00, -3.3D-01, r^2= 7.3D+00
   Bfn.  Coefficient  Atom+Function         Bfn.  Coefficient  Atom+Function  
  ----- ------------  ---------------      ----- ------------  ---------------
   254      0.291177  16 O  pz              229     -0.238982  15 C  pz        
   250     -0.198924  16 O  s               214      0.177317  14 H  s         
   215      0.164794  14 H  s               177      0.159749  11 C  pz        

 Vector   47  Occ=2.000000D+00  E=-6.152088D-01
              MO Center= -3.0D-01, -2.1D+00,  1.4D-02, r^2= 7.3D+00
   Bfn.  Coefficient  Atom+Function         Bfn.  Coefficient  Atom+Function  
  ----- ------------  ---------------      ----- ------------  ---------------
    82      0.273864   6 O  px               58      0.261381   5 C  py        
   139      0.205274   9 C  s                16     -0.173016   2 C  pz        
    85      0.169790   6 O  px              163     -0.160531  10 H  s         
   225     -0.160124  15 C  s         

 Vector   48  Occ=2.000000D+00  E=-6.101406D-01
              MO Center= -2.7D-01,  2.2D+00,  3.7D-01, r^2= 7.5D+00
   Bfn.  Coefficient  Atom+Function         Bfn.  Coefficient  Atom+Function  
  ----- ------------  ---------------      ----- ------------  ---------------
   550      0.264608  33 O  py              418      0.184952  26 H  s         
   547      0.174503  33 O  s               388     -0.168870  24 C  px        
   346      0.158940  21 C  py              387      0.154409  24 C  s         

 Vector   49  Occ=2.000000D+00  E=-5.985050D-01
              MO Center=  3.1D-01, -2.5D+00, -8.4D-02, r^2= 1.0D+01
   Bfn.  Coefficient  Atom+Function         Bfn.  Coefficient  Atom+Function  
  ----- ------------  ---------------      ----- ------------  ---------------
    14      0.275404   2 C  px               35     -0.266427   3 H  s         
   205     -0.226886  13 H  s                36     -0.197819   3 H  s         
   139     -0.190338   9 C  s               175     -0.173177  11 C  px        
   206     -0.173889  13 H  s                44      0.157281   4 H  s         
   145     -0.154863   9 C  py              225      0.152108  15 C  s         

 Vector   50  Occ=2.000000D+00  E=-5.925528D-01
              MO Center= -1.3D-01, -1.5D+00, -9.4D-02, r^2= 9.3D+00
   Bfn.  Coefficient  Atom+Function         Bfn.  Coefficient  Atom+Function  
  ----- ------------  ---------------      ----- ------------  ---------------
    36     -0.191085   3 H  s                 1      0.176760   1 H  s         
    14      0.170250   2 C  px               35     -0.158723   3 H  s         
   309     -0.159060  19 C  s                82      0.154040   6 O  px        

 Vector   51  Occ=2.000000D+00  E=-5.860797D-01
              MO Center=  3.4D-01,  1.7D+00,  3.6D-01, r^2= 9.2D+00
   Bfn.  Coefficient  Atom+Function         Bfn.  Coefficient  Atom+Function  
  ----- ------------  ---------------      ----- ------------  ---------------
   525      0.209326  32 C  py              550     -0.198445  33 O  py        
   551     -0.197776  33 O  pz              309     -0.165151  19 C  s         
   225     -0.162352  15 C  s               276      0.159216  17 N  s         
   547     -0.159977  33 O  s               522      0.157584  32 C  s         
   389      0.150776  24 C  py        

 Vector   52  Occ=2.000000D+00  E=-5.754140D-01
              MO Center= -3.1D-01,  9.0D-01, -6.5D-02, r^2= 1.2D+01
   Bfn.  Coefficient  Atom+Function         Bfn.  Coefficient  Atom+Function  
  ----- ------------  ---------------      ----- ------------  ---------------
   457      0.209583  28 O  py              458     -0.186730  28 O  pz        
   454      0.169072  28 O  s               214      0.164059  14 H  s         

 Vector   53  Occ=2.000000D+00  E=-5.659984D-01
              MO Center=  2.3D-01, -1.3D+00,  5.0D-02, r^2= 1.2D+01
   Bfn.  Coefficient  Atom+Function         Bfn.  Coefficient  Atom+Function  
  ----- ------------  ---------------      ----- ------------  ---------------
   206      0.281248  13 H  s               205      0.205302  13 H  s         
    55     -0.188268   5 C  s                12      0.183076   2 C  s         
    14      0.181859   2 C  px              176      0.174994  11 C  py        
   139      0.165331   9 C  s                35     -0.159883   3 H  s         
   108      0.154052   7 N  py        

 Vector   54  Occ=2.000000D+00  E=-5.644420D-01
              MO Center=  4.1D-03, -9.7D-01,  1.1D-01, r^2= 1.2D+01
   Bfn.  Coefficient  Atom+Function         Bfn.  Coefficient  Atom+Function  
  ----- ------------  ---------------      ----- ------------  ---------------
   343      0.317369  21 C  s                55     -0.191637   5 C  s         
   215     -0.184024  14 H  s               176      0.182369  11 C  py        
   433      0.177698  27 C  pz              214     -0.170478  14 H  s         
   206      0.164549  13 H  s               205      0.154804  13 H  s         

 Vector   55  Occ=2.000000D+00  E=-5.553689D-01
              MO Center=  2.8D-01, -5.8D-01,  4.7D-02, r^2= 1.1D+01
   Bfn.  Coefficient  Atom+Function         Bfn.  Coefficient  Atom+Function  
  ----- ------------  ---------------      ----- ------------  ---------------
   196      0.200607  12 H  s               177     -0.197867  11 C  pz        
   163      0.181760  10 H  s               197      0.164621  12 H  s         
   481      0.158273  29 N  px        

 Vector   56  Occ=2.000000D+00  E=-5.480730D-01
              MO Center=  3.3D-01,  8.0D-02, -9.6D-02, r^2= 1.1D+01
   Bfn.  Coefficient  Atom+Function         Bfn.  Coefficient  Atom+Function  
  ----- ------------  ---------------      ----- ------------  ---------------
   343      0.240251  21 C  s               309     -0.206034  19 C  s         
   141      0.176366   9 C  px              175     -0.173204  11 C  px        
   252     -0.171946  16 O  px        

 Vector   57  Occ=2.000000D+00  E=-5.441295D-01
              MO Center=  8.4D-01,  3.0D-01, -8.0D-02, r^2= 1.1D+01
   Bfn.  Coefficient  Atom+Function         Bfn.  Coefficient  Atom+Function  
  ----- ------------  ---------------      ----- ------------  ---------------
   576     -0.154276  34 N  pz              551     -0.151714  33 O  pz        

 Vector   58  Occ=2.000000D+00  E=-5.348358D-01
              MO Center=  1.1D+00, -1.3D+00,  2.1D-01, r^2= 7.9D+00
   Bfn.  Coefficient  Atom+Function         Bfn.  Coefficient  Atom+Function  
  ----- ------------  ---------------      ----- ------------  ---------------
   178     -0.220024  11 C  px              163     -0.214774  10 H  s         
   141      0.213390   9 C  px              174     -0.212982  11 C  s         
   162     -0.205864  10 H  s               175     -0.192887  11 C  px        
   196     -0.179444  12 H  s                84      0.177170   6 O  pz        
   143     -0.159299   9 C  pz        

 Vector   59  Occ=2.000000D+00  E=-5.091944D-01
              MO Center= -9.5D-01,  1.9D+00,  5.9D-01, r^2= 4.4D+00
   Bfn.  Coefficient  Atom+Function         Bfn.  Coefficient  Atom+Function  
  ----- ------------  ---------------      ----- ------------  ---------------
   367      0.310808  22 H  s               376     -0.312033  23 H  s         
   347      0.277780  21 C  pz              410     -0.277110  25 H  s         
   366      0.268802  22 H  s               387      0.243283  24 C  s         
   386     -0.228491  24 C  s               375     -0.216630  23 H  s         
   457      0.189912  28 O  py              348     -0.177427  21 C  px        

 Vector   60  Occ=2.000000D+00  E=-4.984853D-01
              MO Center= -1.3D+00,  1.8D+00,  7.1D-01, r^2= 3.9D+00
   Bfn.  Coefficient  Atom+Function         Bfn.  Coefficient  Atom+Function  
  ----- ------------  ---------------      ----- ------------  ---------------
   346      0.313218  21 C  py              391     -0.286523  24 C  px        
   389     -0.265817  24 C  py              375      0.196001  23 H  s         
   409      0.189167  25 H  s               388     -0.179511  24 C  px        
   392     -0.171394  24 C  py              345      0.157068  21 C  px        

 Vector   61  Occ=2.000000D+00  E=-4.956597D-01
              MO Center= -1.3D+00,  1.7D+00,  5.7D-01, r^2= 4.3D+00
   Bfn.  Coefficient  Atom+Function         Bfn.  Coefficient  Atom+Function  
  ----- ------------  ---------------      ----- ------------  ---------------
   418      0.258711  26 H  s               313      0.245980  19 C  pz        
   343     -0.240011  21 C  s               348      0.214433  21 C  px        
   388     -0.212215  24 C  px              345      0.210056  21 C  px        
   419      0.193120  26 H  s               386      0.172761  24 C  s         
   314     -0.165963  19 C  px              410     -0.158386  25 H  s         

 Vector   62  Occ=2.000000D+00  E=-4.642709D-01
              MO Center=  6.5D-01, -1.1D+00, -3.3D-01, r^2= 5.3D+00
   Bfn.  Coefficient  Atom+Function         Bfn.  Coefficient  Atom+Function  
  ----- ------------  ---------------      ----- ------------  ---------------
   253      0.359865  16 O  py              256      0.285355  16 O  py        
    84      0.240768   6 O  pz              109     -0.232783   7 N  pz        
   252     -0.211816  16 O  px              112     -0.197561   7 N  pz        
    87      0.188886   6 O  pz              225     -0.181282  15 C  s         
   255     -0.170716  16 O  px              173     -0.155244  11 C  s         

 Vector   63  Occ=2.000000D+00  E=-4.573778D-01
              MO Center= -7.9D-01, -2.4D+00,  3.2D-01, r^2= 3.3D+00
   Bfn.  Coefficient  Atom+Function         Bfn.  Coefficient  Atom+Function  
  ----- ------------  ---------------      ----- ------------  ---------------
    82      0.393410   6 O  px               85      0.323834   6 O  px        
    83      0.308031   6 O  py               86      0.237890   6 O  py        
    15      0.189468   2 C  py               18      0.166511   2 C  py        
   105     -0.164283   7 N  s               107      0.159751   7 N  px        

 Vector   64  Occ=2.000000D+00  E=-4.409483D-01
              MO Center=  1.2D+00,  1.3D+00, -5.0D-02, r^2= 6.3D+00
   Bfn.  Coefficient  Atom+Function         Bfn.  Coefficient  Atom+Function  
  ----- ------------  ---------------      ----- ------------  ---------------
   549      0.317761  33 O  px              277      0.281693  17 N  px        
   552      0.252715  33 O  px              280      0.245435  17 N  px        
   253     -0.225213  16 O  py              252     -0.211781  16 O  px        
   551     -0.211162  33 O  pz              343     -0.206726  21 C  s         
   256     -0.179959  16 O  py              255     -0.167103  16 O  px        

 Vector   65  Occ=2.000000D+00  E=-4.239177D-01
              MO Center=  6.5D-01, -1.6D+00, -7.7D-02, r^2= 4.8D+00
   Bfn.  Coefficient  Atom+Function         Bfn.  Coefficient  Atom+Function  
  ----- ------------  ---------------      ----- ------------  ---------------
   109      0.291461   7 N  pz              253      0.284979  16 O  py        
   112      0.261106   7 N  pz              256      0.241505  16 O  py        
   234     -0.217759  15 C  py               84     -0.200899   6 O  pz        
   108     -0.201033   7 N  py              111     -0.189145   7 N  py        
   231     -0.168542  15 C  py               87     -0.160323   6 O  pz        

 Vector   66  Occ=2.000000D+00  E=-4.025937D-01
              MO Center= -1.2D+00,  2.0D+00, -4.2D-01, r^2= 7.6D+00
   Bfn.  Coefficient  Atom+Function         Bfn.  Coefficient  Atom+Function  
  ----- ------------  ---------------      ----- ------------  ---------------
   457      0.306254  28 O  py              458      0.282172  28 O  pz        
   460      0.243925  28 O  py              461      0.216511  28 O  pz        
   551     -0.188683  33 O  pz              367     -0.181437  22 H  s         
   276     -0.158640  17 N  s               554     -0.151472  33 O  pz        
   550      0.150004  33 O  py        

 Vector   67  Occ=2.000000D+00  E=-4.000071D-01
              MO Center=  7.2D-01,  2.6D+00, -4.5D-01, r^2= 6.9D+00
   Bfn.  Coefficient  Atom+Function         Bfn.  Coefficient  Atom+Function  
  ----- ------------  ---------------      ----- ------------  ---------------
   576      0.267539  34 N  pz              579      0.241170  34 N  pz        
   551     -0.224605  33 O  pz              574      0.204231  34 N  px        
   549     -0.192830  33 O  px              575     -0.188731  34 N  py        
   457     -0.187414  28 O  py              554     -0.175449  33 O  pz        
   550      0.173540  33 O  py              458     -0.164159  28 O  pz        

 Vector   68  Occ=2.000000D+00  E=-3.951881D-01
              MO Center=  5.5D-01,  1.7D+00, -1.1D-03, r^2= 6.7D+00
   Bfn.  Coefficient  Atom+Function         Bfn.  Coefficient  Atom+Function  
  ----- ------------  ---------------      ----- ------------  ---------------
   549      0.335228  33 O  px              552      0.262441  33 O  px        
   277     -0.251666  17 N  px              522      0.245856  32 C  s         
   280     -0.229498  17 N  px              252      0.194586  16 O  px        
   309     -0.172942  19 C  s               311      0.161974  19 C  px        
   255      0.158806  16 O  px        

 Vector   69  Occ=2.000000D+00  E=-3.880899D-01
              MO Center= -2.8D+00,  8.0D-01, -6.2D-01, r^2= 2.9D+00
   Bfn.  Coefficient  Atom+Function         Bfn.  Coefficient  Atom+Function  
  ----- ------------  ---------------      ----- ------------  ---------------
   481      0.372802  29 N  px              484      0.335344  29 N  px        
   456     -0.333367  28 O  px              459     -0.268683  28 O  px        
   276      0.255057  17 N  s               458      0.225717  28 O  pz        
   309      0.219048  19 C  s               522     -0.217070  32 C  s         
   483     -0.200290  29 N  pz              343      0.189388  21 C  s         

 Vector   70  Occ=0.000000D+00  E= 1.733472D-02
              MO Center=  1.8D+00, -4.9D+00,  4.6D-01, r^2= 1.9D+01
   Bfn.  Coefficient  Atom+Function         Bfn.  Coefficient  Atom+Function  
  ----- ------------  ---------------      ----- ------------  ---------------
   106     -2.381609   7 N  s                56      2.368731   5 C  s         
   216     -2.229578  14 H  s               233      1.983466  15 C  px        
    13      1.841510   2 C  s               173      1.813778  11 C  s         
     3     -1.706262   1 H  s               234     -1.670172  15 C  py        
    12      1.475732   2 C  s               215     -1.298248  14 H  s         

 Vector   71  Occ=0.000000D+00  E= 2.947961D-02
              MO Center=  1.3D+00, -2.8D+00,  9.9D-01, r^2= 3.1D+01
   Bfn.  Coefficient  Atom+Function         Bfn.  Coefficient  Atom+Function  
  ----- ------------  ---------------      ----- ------------  ---------------
    64      3.591975   5 C  py              164     -2.875910  10 H  s         
   147      2.758235   9 C  px               56      2.650816   5 C  s         
    63      2.345447   5 C  px               12     -1.981587   2 C  s         
   207     -1.975873  13 H  s               149      1.946705   9 C  pz        
    46      1.696290   4 H  s                65      1.430777   5 C  pz        

 Vector   72  Occ=0.000000D+00  E= 3.402823D-02
              MO Center=  8.6D-01, -2.6D+00,  7.4D-01, r^2= 3.4D+01
   Bfn.  Coefficient  Atom+Function         Bfn.  Coefficient  Atom+Function  
  ----- ------------  ---------------      ----- ------------  ---------------
   164      3.942519  10 H  s               147      3.705143   9 C  px        
   411      2.411662  25 H  s               198     -2.302698  12 H  s         
    37      2.138591   3 H  s               174     -2.051791  11 C  s         
   234     -1.949356  15 C  py              387      1.789052  24 C  s         
   173      1.606682  11 C  s               300     -1.565468  18 H  s         

 Vector   73  Occ=0.000000D+00  E= 3.845501D-02
              MO Center=  1.4D+00, -1.4D+00, -8.3D-01, r^2= 3.9D+01
   Bfn.  Coefficient  Atom+Function         Bfn.  Coefficient  Atom+Function  
  ----- ------------  ---------------      ----- ------------  ---------------
   216      2.785391  14 H  s               573     -2.659705  34 N  s         
   430      2.085879  27 C  s               523      1.971118  32 C  s         
    46     -1.925476   4 H  s               207     -1.901241  13 H  s         
     3      1.890065   1 H  s               233     -1.793124  15 C  px        
   174      1.634696  11 C  s               530      1.609249  32 C  px        

 Vector   74  Occ=0.000000D+00  E= 4.770739D-02
              MO Center=  3.9D-01, -1.5D+00,  3.3D-01, r^2= 4.3D+01
   Bfn.  Coefficient  Atom+Function         Bfn.  Coefficient  Atom+Function  
  ----- ------------  ---------------      ----- ------------  ---------------
   130      2.789037   8 H  s                37     -2.252807   3 H  s         
   573     -2.224196  34 N  s                 3     -2.205069   1 H  s         
   106      2.089292   7 N  s               420      1.848351  26 H  s         
    46      1.827544   4 H  s               207     -1.735347  13 H  s         
   353     -1.687454  21 C  pz              606     -1.695756  36 H  s         

 Vector   75  Occ=0.000000D+00  E= 5.009346D-02
              MO Center=  6.8D-01, -1.4D+00, -5.0D-01, r^2= 4.5D+01
   Bfn.  Coefficient  Atom+Function         Bfn.  Coefficient  Atom+Function  
  ----- ------------  ---------------      ----- ------------  ---------------
     3      2.883594   1 H  s               216     -2.800193  14 H  s         
   606      1.863506  36 H  s               438     -1.805059  27 C  py        
    37     -1.731968   3 H  s               310     -1.695022  19 C  s         
   504     -1.699091  30 H  s               480     -1.656651  29 N  s         
   130      1.601656   8 H  s               387      1.590117  24 C  s         

 Vector   76  Occ=0.000000D+00  E= 5.361764D-02
              MO Center= -1.4D+00, -9.1D-01,  1.2D+00, r^2= 3.9D+01
   Bfn.  Coefficient  Atom+Function         Bfn.  Coefficient  Atom+Function  
  ----- ------------  ---------------      ----- ------------  ---------------
   420      4.025918  26 H  s               164     -3.347513  10 H  s         
    46     -2.745009   4 H  s                37      2.587045   3 H  s         
   394      2.594344  24 C  px              387      2.566757  24 C  s         
   386     -2.328751  24 C  s                56      2.299615   5 C  s         
   113      2.282125   7 N  px              317      2.283374  19 C  px        

 Vector   77  Occ=0.000000D+00  E= 5.744092D-02
              MO Center=  1.7D+00, -6.9D-01, -3.4D-02, r^2= 3.8D+01
   Bfn.  Coefficient  Atom+Function         Bfn.  Coefficient  Atom+Function  
  ----- ------------  ---------------      ----- ------------  ---------------
   164      5.258647  10 H  s               207     -4.301360  13 H  s         
   387     -3.804806  24 C  s               149     -3.511967   9 C  pz        
   276     -2.953652  17 N  s               300     -2.886508  18 H  s         
   174      2.855659  11 C  s               235      2.339005  15 C  pz        
   597      2.046247  35 H  s               216      1.951397  14 H  s         

 Vector   78  Occ=0.000000D+00  E= 6.229814D-02
              MO Center=  3.6D-01, -9.0D-01,  1.4D-01, r^2= 4.3D+01
   Bfn.  Coefficient  Atom+Function         Bfn.  Coefficient  Atom+Function  
  ----- ------------  ---------------      ----- ------------  ---------------
   198      4.760827  12 H  s               234      4.445484  15 C  py        
   411      4.095283  25 H  s               216     -3.338576  14 H  s         
   164      3.279522  10 H  s               420     -2.825956  26 H  s         
    37      2.659043   3 H  s               395      2.286145  24 C  py        
   430      2.163692  27 C  s               183      2.094960  11 C  pz        

 Vector   79  Occ=0.000000D+00  E= 7.184378D-02
              MO Center= -8.8D-01, -1.9D+00, -4.8D-01, r^2= 3.9D+01
   Bfn.  Coefficient  Atom+Function         Bfn.  Coefficient  Atom+Function  
  ----- ------------  ---------------      ----- ------------  ---------------
   430      6.478019  27 C  s               480     -5.490035  29 N  s         
    46      4.143002   4 H  s               130     -3.934691   8 H  s         
   300     -3.738709  18 H  s               387      3.516914  24 C  s         
   420      3.038862  26 H  s               164      2.993991  10 H  s         
   438     -2.837342  27 C  py              276     -2.820994  17 N  s         

 Vector   80  Occ=0.000000D+00  E= 7.371998D-02
              MO Center= -1.5D-01, -8.1D-02,  1.7D+00, r^2= 4.3D+01
   Bfn.  Coefficient  Atom+Function         Bfn.  Coefficient  Atom+Function  
  ----- ------------  ---------------      ----- ------------  ---------------
   207      4.546258  13 H  s               368     -4.553572  22 H  s         
    56     -4.021651   5 C  s                37     -3.880481   3 H  s         
   216     -3.280932  14 H  s                63     -2.752335   5 C  px        
   420      2.695928  26 H  s               351      2.625101  21 C  px        
    64     -2.488022   5 C  py              343      2.252100  21 C  s         

 Vector   81  Occ=0.000000D+00  E= 7.475313D-02
              MO Center=  1.1D+00, -6.2D-02, -1.1D+00, r^2= 4.2D+01
   Bfn.  Coefficient  Atom+Function         Bfn.  Coefficient  Atom+Function  
  ----- ------------  ---------------      ----- ------------  ---------------
   430      4.914270  27 C  s               198     -3.587727  12 H  s         
     3     -3.309783   1 H  s               130      3.250275   8 H  s         
   411      3.129763  25 H  s               597     -3.086218  35 H  s         
   149      3.039770   9 C  pz              606      2.931481  36 H  s         
   276      2.916055  17 N  s               344     -2.928406  21 C  s         

 Vector   82  Occ=0.000000D+00  E= 8.133669D-02
              MO Center= -8.8D-01,  7.3D-01,  9.1D-01, r^2= 4.0D+01
   Bfn.  Coefficient  Atom+Function         Bfn.  Coefficient  Atom+Function  
  ----- ------------  ---------------      ----- ------------  ---------------
   430      6.892155  27 C  s               164     -5.402132  10 H  s         
   377     -5.311520  23 H  s               411      4.595535  25 H  s         
   344     -4.532075  21 C  s               352      3.134168  21 C  py        
   395      2.979136  24 C  py              216      2.885865  14 H  s         
   310     -2.670583  19 C  s               353     -2.606225  21 C  pz        

 Vector   83  Occ=0.000000D+00  E= 8.764821D-02
              MO Center=  8.1D-01, -9.1D-02, -1.8D+00, r^2= 3.6D+01
   Bfn.  Coefficient  Atom+Function         Bfn.  Coefficient  Atom+Function  
  ----- ------------  ---------------      ----- ------------  ---------------
   234      8.851846  15 C  py              198      5.140470  12 H  s         
   597     -4.384260  35 H  s               334     -4.200223  20 H  s         
   164      3.946654  10 H  s               174      3.307498  11 C  s         
   276     -2.896062  17 N  s               130     -2.860103   8 H  s         
   606      2.426764  36 H  s                37     -2.379785   3 H  s         

 Vector   84  Occ=0.000000D+00  E= 9.014079D-02
              MO Center= -4.3D-01,  1.7D+00,  2.1D-01, r^2= 3.5D+01
   Bfn.  Coefficient  Atom+Function         Bfn.  Coefficient  Atom+Function  
  ----- ------------  ---------------      ----- ------------  ---------------
   411     10.778248  25 H  s               420     -5.767319  26 H  s         
   395      4.671615  24 C  py              377      4.276163  23 H  s         
   334      4.215389  20 H  s               174     -4.139257  11 C  s         
   300     -3.815564  18 H  s               513     -3.387979  31 H  s         
   597     -3.326984  35 H  s               351      3.023178  21 C  px        

 Vector   85  Occ=0.000000D+00  E= 9.406629D-02
              MO Center= -1.6D-01, -5.2D-01,  1.7D+00, r^2= 3.4D+01
   Bfn.  Coefficient  Atom+Function         Bfn.  Coefficient  Atom+Function  
  ----- ------------  ---------------      ----- ------------  ---------------
   300      8.868590  18 H  s               368     -6.391217  22 H  s         
   174     -6.297580  11 C  s                56      5.892562   5 C  s         
   147      5.449818   9 C  px              430     -3.540292  27 C  s         
   411     -3.462078  25 H  s               207     -3.437063  13 H  s         
   353      3.205618  21 C  pz               64      2.992341   5 C  py        

 Vector   86  Occ=0.000000D+00  E= 1.043004D-01
              MO Center= -1.9D+00, -7.5D-01,  7.6D-01, r^2= 3.6D+01
   Bfn.  Coefficient  Atom+Function         Bfn.  Coefficient  Atom+Function  
  ----- ------------  ---------------      ----- ------------  ---------------
   430     14.080036  27 C  s               513    -12.561878  31 H  s         
   300     -7.422201  18 H  s               164      6.030373  10 H  s         
   411      5.448833  25 H  s               334      4.899722  20 H  s         
   344     -4.709170  21 C  s                37      4.472433   3 H  s         
   319      3.897930  19 C  pz              480     -3.861947  29 N  s         

 Vector   87  Occ=0.000000D+00  E= 1.080867D-01
              MO Center=  2.2D-01,  1.4D+00, -5.6D-01, r^2= 3.8D+01
   Bfn.  Coefficient  Atom+Function         Bfn.  Coefficient  Atom+Function  
  ----- ------------  ---------------      ----- ------------  ---------------
   334     10.413579  20 H  s               430     -7.765723  27 C  s         
   411     -7.598323  25 H  s               377     -6.623075  23 H  s         
   597     -5.103493  35 H  s               513      4.897085  31 H  s         
   319      4.379749  19 C  pz              198      3.806083  12 H  s         
   420      3.614559  26 H  s               368      3.537175  22 H  s         

 Vector   88  Occ=0.000000D+00  E= 1.127149D-01
              MO Center= -4.8D-01, -8.5D-01,  1.2D+00, r^2= 3.4D+01
   Bfn.  Coefficient  Atom+Function         Bfn.  Coefficient  Atom+Function  
  ----- ------------  ---------------      ----- ------------  ---------------
   430     14.026024  27 C  s               164     -9.790536  10 H  s         
   300      9.330067  18 H  s               344     -8.694599  21 C  s         
   318      7.609118  19 C  py              368     -7.379164  22 H  s         
    63      6.213800   5 C  px               13      5.728586   2 C  s         
   149      5.430852   9 C  pz               56      5.108807   5 C  s         

 Vector   89  Occ=0.000000D+00  E= 1.245372D-01
              MO Center= -3.0D-01, -2.1D-01, -1.2D-01, r^2= 3.6D+01
   Bfn.  Coefficient  Atom+Function         Bfn.  Coefficient  Atom+Function  
[...]
   318      8.140486  19 C  py              147      7.039348   9 C  px        
   343      6.160754  21 C  s               530      6.086936  32 C  px        
   309     -5.991617  19 C  s               319      5.741941  19 C  pz        
   317     -5.602115  19 C  px              438     -5.220444  27 C  py        

 Vector  172  Occ=0.000000D+00  E= 4.318749D-01
              MO Center=  5.5D-01, -2.8D-01,  6.3D-01, r^2= 2.1D+01
   Bfn.  Coefficient  Atom+Function         Bfn.  Coefficient  Atom+Function  
  ----- ------------  ---------------      ----- ------------  ---------------
    13      8.269777   2 C  s               343     -8.280435  21 C  s         
   276     -6.679741  17 N  s               173      6.634054  11 C  s         
   317     -6.424608  19 C  px              284      6.300360  17 N  py        
   113      6.127039   7 N  px              215     -5.841293  14 H  s         
   333     -5.625930  20 H  s               174      5.490623  11 C  s         

 Vector  173  Occ=0.000000D+00  E= 4.373988D-01
              MO Center=  9.7D-01, -2.6D-01, -5.8D-02, r^2= 2.0D+01
   Bfn.  Coefficient  Atom+Function         Bfn.  Coefficient  Atom+Function  
  ----- ------------  ---------------      ----- ------------  ---------------
   319     11.309697  19 C  pz              276    -10.115116  17 N  s         
   344      9.761046  21 C  s               106      8.883414   7 N  s         
   174     -8.859303  11 C  s               430     -8.751025  27 C  s         
   376     -8.307852  23 H  s               343      8.213497  21 C  s         
   197      6.971847  12 H  s               367     -6.914340  22 H  s         

 Vector  174  Occ=0.000000D+00  E= 4.426587D-01
              MO Center= -6.2D-01, -1.6D+00, -2.5D-01, r^2= 2.3D+01
   Bfn.  Coefficient  Atom+Function         Bfn.  Coefficient  Atom+Function  
  ----- ------------  ---------------      ----- ------------  ---------------
   317     11.539059  19 C  px              573    -11.526131  34 N  s         
   276     -9.577454  17 N  s               523      7.298283  32 C  s         
   310      5.692306  19 C  s               513     -5.060790  31 H  s         
   430      4.973084  27 C  s                56     -4.843469   5 C  s         
   174      4.692697  11 C  s                63     -4.425215   5 C  px        

 Vector  175  Occ=0.000000D+00  E= 4.465512D-01
              MO Center= -4.9D-01, -3.2D-01,  3.0D-01, r^2= 1.9D+01
   Bfn.  Coefficient  Atom+Function         Bfn.  Coefficient  Atom+Function  
  ----- ------------  ---------------      ----- ------------  ---------------
   480     -9.841067  29 N  s               430      9.445280  27 C  s         
   411     -6.289721  25 H  s               334      6.063324  20 H  s         
   351     -5.526857  21 C  px              234     -5.272634  15 C  py        
   386      5.039877  24 C  s                 2      4.951883   1 H  s         
   319      4.502925  19 C  pz              395     -4.396546  24 C  py        

 Vector  176  Occ=0.000000D+00  E= 4.498588D-01
              MO Center= -9.5D-02, -1.7D+00,  2.6D-01, r^2= 2.1D+01
   Bfn.  Coefficient  Atom+Function         Bfn.  Coefficient  Atom+Function  
  ----- ------------  ---------------      ----- ------------  ---------------
    56     15.817579   5 C  s               174    -15.035740  11 C  s         
   430     12.935805  27 C  s               317      9.070121  19 C  px        
   147      8.922145   9 C  px              234      7.626316  15 C  py        
   386      6.833164  24 C  s               276     -6.359972  17 N  s         
   173     -5.119018  11 C  s               197      4.535241  12 H  s         

 Vector  177  Occ=0.000000D+00  E= 4.511168D-01
              MO Center=  6.1D-02,  9.0D-01,  3.9D-01, r^2= 1.9D+01
   Bfn.  Coefficient  Atom+Function         Bfn.  Coefficient  Atom+Function  
  ----- ------------  ---------------      ----- ------------  ---------------
   318     10.767622  19 C  py              430     10.784494  27 C  s         
   276     10.292637  17 N  s               344    -10.272578  21 C  s         
   235     -9.783323  15 C  pz              173     -8.460706  11 C  s         
   284      7.596501  17 N  py              367      7.185685  22 H  s         
   387     -6.603801  24 C  s               206      6.379456  13 H  s         

 Vector  178  Occ=0.000000D+00  E= 4.570998D-01
              MO Center=  5.0D-01,  2.1D-01,  1.1D-01, r^2= 1.9D+01
   Bfn.  Coefficient  Atom+Function         Bfn.  Coefficient  Atom+Function  
  ----- ------------  ---------------      ----- ------------  ---------------
   235      8.498523  15 C  pz              276     -8.109080  17 N  s         
   174      7.960060  11 C  s               430     -7.756560  27 C  s         
   234      7.061749  15 C  py              149     -6.979395   9 C  pz        
   318     -6.204546  19 C  py              113     -5.871654   7 N  px        
   106     -5.684539   7 N  s                56     -5.621997   5 C  s         

 Vector  179  Occ=0.000000D+00  E= 4.608897D-01
              MO Center=  4.0D-01,  5.6D-01, -4.0D-01, r^2= 2.0D+01
   Bfn.  Coefficient  Atom+Function         Bfn.  Coefficient  Atom+Function  
  ----- ------------  ---------------      ----- ------------  ---------------
   573     14.224263  34 N  s               480    -10.894404  29 N  s         
   430      8.865107  27 C  s               318     -7.973049  19 C  py        
   343      7.674065  21 C  s               235      5.831293  15 C  pz        
   530     -4.892775  32 C  px              376     -4.425945  23 H  s         
   317     -4.181768  19 C  px              113     -4.072827   7 N  px        

 Vector  180  Occ=0.000000D+00  E= 4.669437D-01
              MO Center=  5.5D-01, -4.1D-01,  6.5D-02, r^2= 1.9D+01
   Bfn.  Coefficient  Atom+Function         Bfn.  Coefficient  Atom+Function  
  ----- ------------  ---------------      ----- ------------  ---------------
   174     18.200265  11 C  s                56    -12.134653   5 C  s         
   386     -9.315823  24 C  s               310     -7.646325  19 C  s         
   318      7.623930  19 C  py              147     -7.107169   9 C  px        
    12      7.029392   2 C  s               106      6.690054   7 N  s         
   309      5.654997  19 C  s               276      5.402636  17 N  s         

 Vector  181  Occ=0.000000D+00  E= 4.715376D-01
              MO Center= -1.7D-01,  1.9D-01, -1.4D-01, r^2= 1.8D+01
   Bfn.  Coefficient  Atom+Function         Bfn.  Coefficient  Atom+Function  
  ----- ------------  ---------------      ----- ------------  ---------------
   276     17.420834  17 N  s               480     -9.767515  29 N  s         
   233      9.611457  15 C  px              318      8.621368  19 C  py        
   139      6.816907   9 C  s               387      5.800332  24 C  s         
   234     -5.748816  15 C  py              344     -5.586190  21 C  s         
   310     -5.227157  19 C  s               438     -5.178151  27 C  py        

 Vector  182  Occ=0.000000D+00  E= 4.734938D-01
              MO Center=  7.1D-01, -9.5D-01, -1.1D-01, r^2= 1.9D+01
   Bfn.  Coefficient  Atom+Function         Bfn.  Coefficient  Atom+Function  
  ----- ------------  ---------------      ----- ------------  ---------------
   430     -8.511193  27 C  s               344      8.138994  21 C  s         
   310      6.317370  19 C  s               174     -6.280869  11 C  s         
    13     -6.081172   2 C  s               215      5.993480  14 H  s         
   148     -4.970449   9 C  py              173     -4.745807  11 C  s         
   318     -4.544772  19 C  py              234     -4.205643  15 C  py        

 Vector  183  Occ=0.000000D+00  E= 4.774473D-01
              MO Center= -6.9D-01,  1.2D-01, -4.1D-02, r^2= 2.0D+01
   Bfn.  Coefficient  Atom+Function         Bfn.  Coefficient  Atom+Function  
  ----- ------------  ---------------      ----- ------------  ---------------
    56     14.631252   5 C  s               174    -10.685272  11 C  s         
   480    -10.537719  29 N  s               430      8.276789  27 C  s         
   395      7.962746  24 C  py              387      6.934638  24 C  s         
    63      6.272214   5 C  px              197      6.289245  12 H  s         
   173     -6.098758  11 C  s               310     -5.916183  19 C  s         

 Vector  184  Occ=0.000000D+00  E= 4.831727D-01
              MO Center=  1.1D-01, -4.2D-01,  2.4D-01, r^2= 2.2D+01
   Bfn.  Coefficient  Atom+Function         Bfn.  Coefficient  Atom+Function  
  ----- ------------  ---------------      ----- ------------  ---------------
   430     24.688387  27 C  s               480    -13.571865  29 N  s         
   276    -12.901530  17 N  s               386      8.332965  24 C  s         
   234     -8.258760  15 C  py              140      7.452312   9 C  s         
   319      7.438390  19 C  pz              353     -6.484743  21 C  pz        
    56      6.178430   5 C  s               148      6.184174   9 C  py        

 Vector  185  Occ=0.000000D+00  E= 4.877272D-01
              MO Center= -2.7D-01,  3.7D-01,  1.3D-01, r^2= 1.9D+01
   Bfn.  Coefficient  Atom+Function         Bfn.  Coefficient  Atom+Function  
  ----- ------------  ---------------      ----- ------------  ---------------
   174     15.139749  11 C  s               430    -11.486952  27 C  s         
   387     11.338669  24 C  s               344     10.402702  21 C  s         
   276     -9.627368  17 N  s               367     -9.367386  22 H  s         
   343      8.764101  21 C  s               386     -8.657752  24 C  s         
   147     -8.506006   9 C  px              376     -7.792704  23 H  s         

 Vector  186  Occ=0.000000D+00  E= 4.897391D-01
              MO Center=  3.0D-01, -3.1D-01, -1.7D-02, r^2= 1.9D+01
   Bfn.  Coefficient  Atom+Function         Bfn.  Coefficient  Atom+Function  
  ----- ------------  ---------------      ----- ------------  ---------------
   317     12.146275  19 C  px              284    -10.339369  17 N  py        
   333      7.051744  20 H  s               343     -7.014510  21 C  s         
    12     -6.219207   2 C  s               367      6.225456  22 H  s         
   387      6.027182  24 C  s               285      5.746090  17 N  pz        
   233     -5.490944  15 C  px              147      5.160793   9 C  px        

 Vector  187  Occ=0.000000D+00  E= 4.944701D-01
              MO Center=  2.2D-01,  5.9D-01,  8.6D-02, r^2= 1.9D+01
   Bfn.  Coefficient  Atom+Function         Bfn.  Coefficient  Atom+Function  
  ----- ------------  ---------------      ----- ------------  ---------------
   174     14.369033  11 C  s               387    -13.078276  24 C  s         
   317    -12.029960  19 C  px              234      7.572216  15 C  py        
    56     -6.096817   5 C  s               147     -5.841798   9 C  px        
   206     -5.565964  13 H  s                12      5.502971   2 C  s         
   113     -5.433187   7 N  px              148     -5.232068   9 C  py        

 Vector  188  Occ=0.000000D+00  E= 5.018412D-01
              MO Center= -5.3D-01, -7.2D-01,  1.9D-02, r^2= 2.1D+01
   Bfn.  Coefficient  Atom+Function         Bfn.  Coefficient  Atom+Function  
  ----- ------------  ---------------      ----- ------------  ---------------
   276     11.430639  17 N  s                12     11.160561   2 C  s         
    36     -7.901867   3 H  s               344     -7.066675  21 C  s         
    56      6.917607   5 C  s               353      6.224949  21 C  pz        
   573      6.210907  34 N  s               173     -5.811931  11 C  s         
   386     -5.777590  24 C  s               419      5.718162  26 H  s         


 center of mass
 --------------
 x =  -0.01983736 y =   0.08349286 z =  -0.01946018

 moments of inertia (a.u.)
 ------------------
        5398.723157185164           0.000000000001          -0.000000000001
           0.000000000001        3732.968309320288           0.000000000001
          -0.000000000001           0.000000000001        8068.779890513712

  Mulliken analysis of the total density
  --------------------------------------

    Atom       Charge   Shell Charges
 -----------   ------   -------------------------------------------------------
    1 H    1     0.87   0.76  0.15  0.00  0.03 -0.07
    2 C    6     6.18   2.01  0.66  0.23  0.04  2.07  1.01  0.02  0.06  0.10
    3 H    1     1.00   0.76  0.25  0.01  0.03 -0.05
    4 H    1     0.86   0.76  0.14 -0.01  0.03 -0.06
    5 C    6     5.08   2.01  0.68  0.06 -0.10  1.89  0.31  0.02  0.24 -0.03
    6 O    8     8.84   2.01  0.81  1.00  0.15  2.80  1.88  0.20  0.01 -0.02
    7 N    7     7.63   2.01  0.72  0.85 -0.10  2.45  1.44  0.15  0.05  0.06
    8 H    1     0.95   0.77  0.20 -0.03  0.05 -0.04
    9 C    6     6.65   2.01  0.66  0.13  0.04  2.00  1.46  0.03  0.14  0.19
   10 H    1     1.25   0.79  0.39  0.01  0.03  0.03
   11 C    6     5.65   2.01  0.66  0.14  0.20  2.04  0.55 -0.03  0.07  0.00
   12 H    1     0.90   0.77  0.16  0.02  0.03 -0.08
   13 H    1     0.98   0.77  0.26  0.00  0.03 -0.08
   14 H    1     1.00   0.77  0.27  0.01  0.03 -0.08
   15 C    6     4.21   2.01  0.68 -0.11 -0.03  1.89  0.07 -0.10  0.23 -0.43
   16 O    8     8.93   2.01  0.82  1.05  0.19  2.79  1.89  0.18  0.01  0.00
   17 N    7     7.42   2.01  0.72  0.84 -0.20  2.44  1.46  0.01  0.05  0.08
   18 H    1     1.05   0.77  0.27 -0.01  0.05 -0.03
   19 C    6     6.36   2.01  0.66  0.12  0.04  2.00  1.23  0.12  0.14  0.04
   20 H    1     0.98   0.78  0.17 -0.04  0.03  0.04
   21 C    6     6.41   2.01  0.67  0.69  0.09  2.03  0.65 -0.06  0.09  0.25
   22 H    1     0.81   0.78  0.12  0.00  0.03 -0.12
   23 H    1     0.83   0.77  0.12 -0.00  0.03 -0.09
   24 C    6     6.45   2.01  0.66  0.44  0.23  2.05  0.85  0.06  0.09  0.06
   25 H    1     1.01   0.79  0.22  0.01  0.03 -0.04
   26 H    1     0.88   0.77  0.14  0.01  0.03 -0.08
   27 C    6     4.63   2.01  0.68  0.05 -0.07  1.91 -0.09  0.02  0.24 -0.12
   28 O    8     8.83   2.01  0.82  1.03  0.18  2.80  1.84  0.14  0.02 -0.00
   29 N    7     7.10   2.01  0.72  0.77 -0.20  2.47  1.23  0.08  0.04 -0.02
   30 H    1     1.04   0.76  0.25 -0.01  0.05 -0.02
   31 H    1     0.82   0.72  0.21 -0.04  0.06 -0.14
   32 C    6     4.49   2.01  0.68  0.06  0.02  1.89 -0.16 -0.04  0.24 -0.22
   33 O    8     8.76   2.01  0.82  1.02  0.14  2.79  1.83  0.14  0.01 -0.01
   34 N    7     7.23   2.01  0.72  0.83 -0.15  2.47  1.25  0.08  0.04 -0.02
   35 H    1     0.90   0.73  0.19 -0.01  0.06 -0.07
   36 H    1     1.01   0.76  0.23 -0.00  0.05 -0.03

       Multipole analysis of the density wrt the origin
       ------------------------------------------------

     L   x y z        total         open         nuclear
     -   - - -        -----         ----         -------
     0   0 0 0     -0.000000      0.000000    138.000000

     1   1 0 0      1.547336      0.000000     -0.000000
     1   0 1 0     -3.800550      0.000000     -0.000000
     1   0 0 1      0.609389      0.000000     -0.000000

     2   2 0 0    -83.818716      0.000000   1756.738178
     2   1 1 0      0.701508      0.000000    -13.107488
     2   1 0 1     -3.303788      0.000000     -3.741083
     2   0 2 0    -82.400418      0.000000   2665.339725
     2   0 1 1      2.403423      0.000000     16.908835
     2   0 0 2    -79.855028      0.000000    315.192709


 Task  times  cpu:     5181.4s     wall:     5303.4s


                                NWChem Input Module
                                -------------------


 Summary of allocated global arrays
-----------------------------------
  No active global arrays


MA_summarize_allocated_blocks: starting scan ...
MA_summarize_allocated_blocks: scan completed: 0 heap blocks, 0 stack blocks
MA usage statistics:

	allocation statistics:
					      heap	     stack
					      ----	     -----
	current number of blocks	         0	         0
	maximum number of blocks	        16	        14
	current total bytes		         0	         0
	maximum total bytes		    129872	  28238872
	maximum total K-bytes		       130	     28239
	maximum total M-bytes		         1	        29


                                     CITATION
                                     --------
                Please cite the following reference when publishing
                           results obtained with NWChem:

          E. Apra, E. J. Bylaska, W. A. de Jong, N. Govind, K. Kowalski,
       T. P. Straatsma, M. Valiev, H. J. J. van Dam, Y. Alexeev, J. Anchell,
       V. Anisimov, F. W. Aquino, R. Atta-Fynn, J. Autschbach, N. P. Bauman,
     J. C. Becca, D. E. Bernholdt, K. Bhaskaran-Nair, S. Bogatko, P. Borowski,
         J. Boschen, J. Brabec, A. Bruner, E. Cauet, Y. Chen, G. N. Chuev,
      C. J. Cramer, J. Daily, M. J. O. Deegan, T. H. Dunning Jr., M. Dupuis,
   K. G. Dyall, G. I. Fann, S. A. Fischer, A. Fonari, H. Fruchtl, L. Gagliardi,
      J. Garza, N. Gawande, S. Ghosh, K. Glaesemann, A. W. Gotz, J. Hammond,
       V. Helms, E. D. Hermes, K. Hirao, S. Hirata, M. Jacquelin, L. Jensen,
   B. G. Johnson, H. Jonsson, R. A. Kendall, M. Klemm, R. Kobayashi, V. Konkov,
      S. Krishnamoorthy, M. Krishnan, Z. Lin, R. D. Lins, R. J. Littlefield,
      A. J. Logsdail, K. Lopata, W. Ma, A. V. Marenich, J. Martin del Campo,
   D. Mejia-Rodriguez, J. E. Moore, J. M. Mullin, T. Nakajima, D. R. Nascimento,
    J. A. Nichols, P. J. Nichols, J. Nieplocha, A. Otero-de-la-Roza, B. Palmer,
    A. Panyala, T. Pirojsirikul, B. Peng, R. Peverati, J. Pittner, L. Pollack,
   R. M. Richard, P. Sadayappan, G. C. Schatz, W. A. Shelton, D. W. Silverstein,
   D. M. A. Smith, T. A. Soares, D. Song, M. Swart, H. L. Taylor, G. S. Thomas,
            V. Tipparaju, D. G. Truhlar, K. Tsemekhman, T. Van Voorhis,
      A. Vazquez-Mayagoitia, P. Verma, O. Villa, A. Vishnu, K. D. Vogiatzis,
        D. Wang, J. H. Weare, M. J. Williamson, T. L. Windus, K. Wolinski,
        A. T. Wong, Q. Wu, C. Yang, Q. Yu, M. Zacharias, Z. Zhang, Y. Zhao,
                                and R. J. Harrison
                        "NWChem: Past, present, and future
                         J. Chem. Phys. 152, 184102 (2020)
                               doi:10.1063/5.0004997

                                      AUTHORS
                                      -------
  E. Apra, E. J. Bylaska, N. Govind, K. Kowalski, M. Valiev, D. Mejia-Rodriguez,
       A. Kunitsa, N. P. Bauman, A. Panyala, W. A. de Jong, T. P. Straatsma,
   H. J. J. van Dam, D. Wang, T. L. Windus, J. Hammond, J. Autschbach, A. Woods,
    K. Bhaskaran-Nair, J. Brabec, K. Lopata, S. A. Fischer, S. Krishnamoorthy,
     M. Jacquelin, W. Ma, M. Klemm, O. Villa, Y. Chen, V. Anisimov, F. Aquino,
     S. Hirata, M. T. Hackler, E. Hermes, L. Jensen, J. E. Moore, J. C. Becca,
      V. Konjkov, T. Risthaus, M. Malagoli, A. Marenich, A. Otero-de-la-Roza,
        J. Mullin, P. Nichols, R. Peverati, J. Pittner, Y. Zhao, P.-D. Fan,
        A. Fonari, M. J. Williamson, R. J. Harrison, J. R. Rehr, M. Dupuis,
     D. Silverstein, D. M. A. Smith, J. Nieplocha, V. Tipparaju, M. Krishnan,
     B. E. Van Kuiken, A. Vazquez-Mayagoitia, M. Swart, Q. Wu, T. Van Voorhis,
     A. A. Auer, M. Nooijen, L. D. Crosby, E. Brown, G. Cisneros, G. I. Fann,
   H. Fruchtl, J. Garza, K. Hirao, R. A. Kendall, J. A. Nichols, K. Tsemekhman,
    K. Wolinski, J. Anchell, D. E. Bernholdt, P. Borowski, T. Clark, D. Clerc,
   H. Dachsel, M. J. O. Deegan, K. Dyall, D. Elwood, E. Glendening, M. Gutowski,
   A. C. Hess, J. Jaffe, B. G. Johnson, J. Ju, R. Kobayashi, R. Kutteh, Z. Lin,
   R. Littlefield, X. Long, B. Meng, T. Nakajima, S. Niu, L. Pollack, M. Rosing,
   K. Glaesemann, G. Sandrone, M. Stave, H. Taylor, G. Thomas, J. H. van Lenthe,
                               A. T. Wong, Z. Zhang.

 Total times  cpu:     5181.4s     wall:     5303.7s
