export TMOUT=5400
export TMPDIR=/tmp
export PTMPDIR=/tmp/ptmp
 argument  1 = ALA_GLN_5.nw
                                         
                                         


             Northwest Computational Chemistry Package (NWChem) 7.2.0
             --------------------------------------------------------


                    Environmental Molecular Sciences Laboratory
                       Pacific Northwest National Laboratory
                                Richland, WA 99352

                              Copyright (c) 1994-2022
                       Pacific Northwest National Laboratory
                            Battelle Memorial Institute

             NWChem is an open-source computational chemistry package
                        distributed under the terms of the
                      Educational Community License (ECL) 2.0
             A copy of the license is included with this distribution
                              in the LICENSE.TXT file

                                  ACKNOWLEDGMENT
                                  --------------

            This software and its documentation were developed at the
            EMSL at Pacific Northwest National Laboratory, a multiprogram
            national laboratory, operated for the U.S. Department of Energy
            by Battelle under Contract Number DE-AC05-76RL01830. Support
            for this work was provided by the Department of Energy Office
            of Biological and Environmental Research, Office of Basic
            Energy Sciences, and the Office of Advanced Scientific Computing.


           Job information
           ---------------

    hostname        = nova18-36
    program         = /opt/rit/el9/20230413/app/linux-rhel9-x86_64_v3/gcc-11.2.1/nwchem-7.2.0-oxtctbuhfuzyfaoziquq6bki22grib3g/bin/nwchem
    date            = Thu Jun 26 11:38:59 2025

    compiled        = Wed_May_17_23:46:39_2023
    source          = /tmp/root/spack-stage/spack-stage-nwchem-7.2.0-oxtctbuhfuzyfaoziquq6bki22grib3g/spack-src
    nwchem branch   = 7.2.0
    nwchem revision = d0d141fd
    ga revision     = 5.8.0
    use scalapack   = T
    input           = ALA_GLN_5.nw
    prefix          = ALA_GLN_5.
    data base       = ./ALA_GLN_5.db
    status          = startup
    nproc           =        8
    time left       =     -1s



           Memory information
           ------------------

    heap     =   26214396 doubles =    200.0 Mbytes
    stack    =   26214401 doubles =    200.0 Mbytes
    global   =   52428800 doubles =    400.0 Mbytes (distinct from heap & stack)
    total    =  104857597 doubles =    800.0 Mbytes
    verify   = yes
    hardfail = no 


           Directory information
           ---------------------

  0 permanent = .
  0 scratch   = .




                                NWChem Input Module
                                -------------------



 Scaling coordinates for geometry "geometry" by  1.889725989
 (inverse scale =  0.529177249)

 C1  symmetry detected

          ------
          auto-z
          ------
  no constraints, skipping    0.0000000000000000     
  no constraints, skipping    0.0000000000000000     


                             Geometry "geometry" -> ""
                             -------------------------

 Output coordinates in angstroms (scale by  1.889725989 to convert to a.u.)

  No.       Tag          Charge          X              Y              Z
 ---- ---------------- ---------- -------------- -------------- --------------
    1 H                    1.0000     2.42809532    -2.80550746     0.77675265
    2 C                    6.0000     2.19946547    -3.07356837    -0.25431803
    3 H                    1.0000     2.05301436    -4.14884929    -0.33258049
    4 H                    1.0000     3.02241570    -2.76795799    -0.89730808
    5 C                    6.0000     0.93913651    -2.36167740    -0.68829635
    6 O                    8.0000     0.95642993    -1.61214072    -1.65731942
    7 N                    7.0000    -0.15886736    -2.60311100     0.02141578
    8 H                    1.0000    -0.07138805    -3.18992629     0.83451121
    9 C                    6.0000    -1.49527636    -2.09258116    -0.30128576
   10 H                    1.0000    -1.59127715    -2.06771936    -1.38834590
   11 C                    6.0000    -2.52547387    -3.10343777     0.22672464
   12 H                    1.0000    -2.47507193    -3.15472960     1.31487986
   13 H                    1.0000    -3.52837797    -2.79084869    -0.06505856
   14 H                    1.0000    -2.32964540    -4.09148534    -0.19385498
   15 C                    6.0000    -1.74400819    -0.64574647     0.19090814
   16 O                    8.0000    -2.70596724    -0.38634926     0.91382299
   17 N                    7.0000    -0.87938735     0.30642897    -0.17825680
   18 H                    1.0000    -0.10387350     0.03706646    -0.77704316
   19 C                    6.0000    -0.96318199     1.70782024     0.26725072
   20 H                    1.0000    -2.00613732     1.91116968     0.51560973
   21 C                    6.0000    -0.15081287     1.90986060     1.56579803
   22 H                    1.0000    -0.47659841     2.84558314     2.02030777
   23 H                    1.0000    -0.39983585     1.11047419     2.26623142
   24 C                    6.0000     1.38289750     1.97789392     1.41927166
   25 H                    1.0000     1.65759512     2.84761836     0.82272943
   26 H                    1.0000     1.82039343     2.10939561     2.40905628
   27 C                    6.0000     1.98805297     0.72410447     0.79804395
   28 O                    8.0000     2.19780368    -0.28217473     1.45132782
   29 N                    7.0000     2.23981683     0.72244141    -0.49117992
   30 H                    1.0000     1.91091843     1.49189348    -1.06533263
   31 H                    1.0000     2.47039174    -0.16379566    -0.91061654
   32 C                    6.0000    -0.57060219     2.71337259    -0.82858757
   33 O                    8.0000     0.34586515     2.48825465    -1.61302019
   34 N                    7.0000    -1.22434649     3.86645124    -0.87340976
   35 H                    1.0000    -0.96441739     4.53089033    -1.58512498
   36 H                    1.0000    -1.97094455     4.05429069    -0.22634433

      Atomic Mass 
      ----------- 

      H                  1.007825
      C                 12.000000
      O                 15.994910
      N                 14.003070


 Effective nuclear repulsion energy (a.u.)    1490.8161287770

            Nuclear Dipole moment (a.u.) 
            ----------------------------
        X                 Y               Z
 ---------------- ---------------- ----------------
    -0.0000000000    -0.0000000000    -0.0000000000



                                Z-matrix (autoz)
                                -------- 

 Units are Angstrom for bonds and degrees for angles

      Type          Name      I     J     K     L     M      Value
      ----------- --------  ----- ----- ----- ----- ----- ----------
    1 Stretch                  1     2                       1.08960
    2 Stretch                  2     3                       1.08803
    3 Stretch                  2     4                       1.08815
    4 Stretch                  2     5                       1.51114
    5 Stretch                  5     6                       1.22520
    6 Stretch                  5     7                       1.32951
    7 Stretch                  7     8                       1.00654
    8 Stretch                  7     9                       1.46655
    9 Stretch                  9    10                       1.09157
   10 Stretch                  9    11                       1.53686
   11 Stretch                  9    15                       1.54837
   12 Stretch                 11    12                       1.09053
   13 Stretch                 11    13                       1.09026
   14 Stretch                 11    14                       1.09155
   15 Stretch                 15    16                       1.23096
   16 Stretch                 15    17                       1.33809
   17 Stretch                 17    18                       1.01613
   18 Stretch                 17    19                       1.47289
   19 Stretch                 19    20                       1.09123
   20 Stretch                 19    21                       1.54499
   21 Stretch                 19    32                       1.53822
   22 Stretch                 21    22                       1.09009
   23 Stretch                 21    23                       1.09162
   24 Stretch                 21    24                       1.54220
   25 Stretch                 24    25                       1.08984
   26 Stretch                 24    26                       1.09012
   27 Stretch                 24    27                       1.52451
   28 Stretch                 27    28                       1.21794
   29 Stretch                 27    29                       1.31358
   30 Stretch                 29    30                       1.01483
   31 Stretch                 29    31                       1.00723
   32 Stretch                 32    33                       1.22716
   33 Stretch                 32    34                       1.32627
   34 Stretch                 34    35                       1.00776
   35 Stretch                 34    36                       1.00568
   36 Bend                     1     2     3               109.84307
   37 Bend                     1     2     4               109.35215
   38 Bend                     1     2     5               109.32115
   39 Bend                     2     5     6               120.23623
   40 Bend                     2     5     7               116.74006
   41 Bend                     3     2     4               109.68540
   42 Bend                     3     2     5               109.43009
   43 Bend                     4     2     5               109.19293
   44 Bend                     5     7     8               117.73060
   45 Bend                     5     7     9               124.88329
   46 Bend                     6     5     7               123.02140
   47 Bend                     7     9    10               107.89075
   48 Bend                     7     9    11               107.83480
   49 Bend                     7     9    15               113.68623
   50 Bend                     8     7     9               117.38079
   51 Bend                     9    11    12               110.04586
   52 Bend                     9    11    13               109.63877
   53 Bend                     9    11    14               110.04381
   54 Bend                     9    15    16               120.60581
   55 Bend                     9    15    17               118.25714
   56 Bend                    10     9    11               107.34782
   57 Bend                    10     9    15               106.32907
   58 Bend                    11     9    15               113.43548
   59 Bend                    12    11    13               108.84715
   60 Bend                    12    11    14               109.48752
   61 Bend                    13    11    14               108.74984
   62 Bend                    15    17    18               117.84578
   63 Bend                    15    17    19               123.83759
   64 Bend                    16    15    17               121.13302
   65 Bend                    17    19    20               107.48874
   66 Bend                    17    19    21               110.40993
   67 Bend                    17    19    32               113.07758
   68 Bend                    18    17    19               118.28641
   69 Bend                    19    21    22               107.79121
   70 Bend                    19    21    23               108.87983
   71 Bend                    19    21    24               116.66858
   72 Bend                    19    32    33               121.74023
   73 Bend                    19    32    34               117.81533
   74 Bend                    20    19    21               106.67165
   75 Bend                    20    19    32               106.51391
   76 Bend                    21    19    32               112.27726
   77 Bend                    21    24    25               109.74768
   78 Bend                    21    24    26               108.55254
   79 Bend                    21    24    27               113.40345
   80 Bend                    22    21    23               107.03073
   81 Bend                    22    21    24               107.39543
   82 Bend                    23    21    24               108.67112
   83 Bend                    24    27    28               121.95726
   84 Bend                    24    27    29               118.49362
   85 Bend                    25    24    26               107.43144
   86 Bend                    25    24    27               109.46416
   87 Bend                    26    24    27               108.05250
   88 Bend                    27    29    30               119.48505
   89 Bend                    27    29    31               116.98104
   90 Bend                    28    27    29               119.49758
   91 Bend                    30    29    31               120.37930
   92 Bend                    32    34    35               118.03146
   93 Bend                    32    34    36               120.43635
   94 Bend                    33    32    34               120.39848
   95 Bend                    35    34    36               121.51581
   96 Torsion                  1     2     5     6         121.69425
   97 Torsion                  1     2     5     7         -58.84215
   98 Torsion                  2     5     7     8           4.07143
   99 Torsion                  2     5     7     9        -175.06497
  100 Torsion                  3     2     5     6        -117.96756
  101 Torsion                  3     2     5     7          61.49605
  102 Torsion                  4     2     5     6           2.09939
  103 Torsion                  4     2     5     7        -178.43701
  104 Torsion                  5     7     9    10          35.08563
  105 Torsion                  5     7     9    11         150.74373
  106 Torsion                  5     7     9    15         -82.57476
  107 Torsion                  6     5     7     8        -176.48127
  108 Torsion                  6     5     7     9           4.38233
  109 Torsion                  7     9    11    12          64.63907
  110 Torsion                  7     9    11    13        -175.67001
  111 Torsion                  7     9    11    14         -56.10014
  112 Torsion                  7     9    15    16        -124.96820
  113 Torsion                  7     9    15    17          54.31013
  114 Torsion                  8     7     9    10        -144.05352
  115 Torsion                  8     7     9    11         -28.39541
  116 Torsion                  8     7     9    15          98.28609
  117 Torsion                  9    15    17    18           0.81460
  118 Torsion                  9    15    17    19        -177.14770
  119 Torsion                 10     9    11    12        -179.34671
  120 Torsion                 10     9    11    13         -59.65579
  121 Torsion                 10     9    11    14          59.91408
  122 Torsion                 10     9    15    16         116.47143
  123 Torsion                 10     9    15    17         -64.25024
  124 Torsion                 11     9    15    16          -1.27988
  125 Torsion                 11     9    15    17         177.99845
  126 Torsion                 12    11     9    15         -62.18884
  127 Torsion                 13    11     9    15          57.50208
  128 Torsion                 14    11     9    15         177.07195
  129 Torsion                 15    17    19    20         -25.49159
  130 Torsion                 15    17    19    21          90.49614
  131 Torsion                 15    17    19    32        -142.76238
  132 Torsion                 16    15    17    18        -179.91105
  133 Torsion                 16    15    17    19           2.12665
  134 Torsion                 17    19    21    22        -162.97369
  135 Torsion                 17    19    21    23         -47.19949
  136 Torsion                 17    19    21    24          76.19368
  137 Torsion                 17    19    32    33         -37.99334
  138 Torsion                 17    19    32    34         144.46393
  139 Torsion                 18    17    19    20         156.55448
  140 Torsion                 18    17    19    21         -87.45779
  141 Torsion                 18    17    19    32          39.28369
  142 Torsion                 19    21    24    25          63.53541
  143 Torsion                 19    21    24    26        -179.32161
  144 Torsion                 19    21    24    27         -59.22660
  145 Torsion                 19    32    34    35         179.48655
  146 Torsion                 19    32    34    36          -1.96309
  147 Torsion                 20    19    21    22         -46.47668
  148 Torsion                 20    19    21    23          69.29752
  149 Torsion                 20    19    21    24        -167.30931
  150 Torsion                 20    19    32    33        -155.83534
  151 Torsion                 20    19    32    34          26.62194
  152 Torsion                 21    19    32    33          87.75269
  153 Torsion                 21    19    32    34         -89.79003
  154 Torsion                 21    24    27    28         -80.65949
  155 Torsion                 21    24    27    29          96.71500
  156 Torsion                 22    21    19    32          69.84046
  157 Torsion                 22    21    24    25         -57.50661
  158 Torsion                 22    21    24    26          59.63637
  159 Torsion                 22    21    24    27         179.73138
  160 Torsion                 23    21    19    32        -174.38534
  161 Torsion                 23    21    24    25        -172.96401
  162 Torsion                 23    21    24    26         -55.82103
  163 Torsion                 23    21    24    27          64.27399
  164 Torsion                 24    21    19    32         -50.99217
  165 Torsion                 24    27    29    30          -8.58119
  166 Torsion                 24    27    29    31        -168.59727
  167 Torsion                 25    24    27    28         156.42204
  168 Torsion                 25    24    27    29         -26.20347
  169 Torsion                 26    24    27    28          39.71929
  170 Torsion                 26    24    27    29        -142.90623
  171 Torsion                 28    27    29    30         168.85950
  172 Torsion                 28    27    29    31           8.84342
  173 Torsion                 33    32    34    35           1.90938
  174 Torsion                 33    32    34    36        -179.54026


            XYZ format geometry
            -------------------
    36
 geometry
 H                     2.42809532    -2.80550746     0.77675265
 C                     2.19946547    -3.07356837    -0.25431803
 H                     2.05301436    -4.14884929    -0.33258049
 H                     3.02241570    -2.76795799    -0.89730808
 C                     0.93913651    -2.36167740    -0.68829635
 O                     0.95642993    -1.61214072    -1.65731942
 N                    -0.15886736    -2.60311100     0.02141578
 H                    -0.07138805    -3.18992629     0.83451121
 C                    -1.49527636    -2.09258116    -0.30128576
 H                    -1.59127715    -2.06771936    -1.38834590
 C                    -2.52547387    -3.10343777     0.22672464
 H                    -2.47507193    -3.15472960     1.31487986
 H                    -3.52837797    -2.79084869    -0.06505856
 H                    -2.32964540    -4.09148534    -0.19385498
 C                    -1.74400819    -0.64574647     0.19090814
 O                    -2.70596724    -0.38634926     0.91382299
 N                    -0.87938735     0.30642897    -0.17825680
 H                    -0.10387350     0.03706646    -0.77704316
 C                    -0.96318199     1.70782024     0.26725072
 H                    -2.00613732     1.91116968     0.51560973
 C                    -0.15081287     1.90986060     1.56579803
 H                    -0.47659841     2.84558314     2.02030777
 H                    -0.39983585     1.11047419     2.26623142
 C                     1.38289750     1.97789392     1.41927166
 H                     1.65759512     2.84761836     0.82272943
 H                     1.82039343     2.10939561     2.40905628
 C                     1.98805297     0.72410447     0.79804395
 O                     2.19780368    -0.28217473     1.45132782
 N                     2.23981683     0.72244141    -0.49117992
 H                     1.91091843     1.49189348    -1.06533263
 H                     2.47039174    -0.16379566    -0.91061654
 C                    -0.57060219     2.71337259    -0.82858757
 O                     0.34586515     2.48825465    -1.61302019
 N                    -1.22434649     3.86645124    -0.87340976
 H                    -0.96441739     4.53089033    -1.58512498
 H                    -1.97094455     4.05429069    -0.22634433

 ==============================================================================
                                internuclear distances
 ------------------------------------------------------------------------------
       center one      |      center two      | atomic units |  angstroms
 ------------------------------------------------------------------------------
    2 C                |   1 H                |     2.05905  |     1.08960
    3 H                |   2 C                |     2.05607  |     1.08803
    4 H                |   2 C                |     2.05631  |     1.08815
    5 C                |   2 C                |     2.85565  |     1.51114
    6 O                |   5 C                |     2.31529  |     1.22520
    7 N                |   5 C                |     2.51241  |     1.32951
    8 H                |   7 N                |     1.90209  |     1.00654
    9 C                |   7 N                |     2.77138  |     1.46655
   10 H                |   9 C                |     2.06278  |     1.09157
   11 C                |   9 C                |     2.90424  |     1.53686
   12 H                |  11 C                |     2.06080  |     1.09053
   13 H                |  11 C                |     2.06029  |     1.09026
   14 H                |  11 C                |     2.06272  |     1.09155
   15 C                |   9 C                |     2.92600  |     1.54837
   16 O                |  15 C                |     2.32617  |     1.23096
   17 N                |  15 C                |     2.52863  |     1.33809
   18 H                |  17 N                |     1.92021  |     1.01613
   19 C                |  17 N                |     2.78335  |     1.47289
   20 H                |  19 C                |     2.06213  |     1.09123
   21 C                |  19 C                |     2.91960  |     1.54499
   22 H                |  21 C                |     2.05997  |     1.09009
   23 H                |  21 C                |     2.06287  |     1.09162
   24 C                |  21 C                |     2.91433  |     1.54220
   25 H                |  24 C                |     2.05949  |     1.08984
   26 H                |  24 C                |     2.06003  |     1.09012
   27 C                |  24 C                |     2.88090  |     1.52451
   28 O                |  27 C                |     2.30157  |     1.21794
   29 N                |  27 C                |     2.48230  |     1.31358
   30 H                |  29 N                |     1.91775  |     1.01483
   31 H                |  29 N                |     1.90338  |     1.00723
   32 C                |  19 C                |     2.90681  |     1.53822
   33 O                |  32 C                |     2.31900  |     1.22716
   34 N                |  32 C                |     2.50628  |     1.32627
   35 H                |  34 N                |     1.90439  |     1.00776
   36 H                |  34 N                |     1.90045  |     1.00568
 ------------------------------------------------------------------------------
                         number of included internuclear distances:         35
 ==============================================================================



 ==============================================================================
                                 internuclear angles
 ------------------------------------------------------------------------------
        center 1       |       center 2       |       center 3       |  degrees
 ------------------------------------------------------------------------------
    1 H                |   2 C                |   3 H                |   109.84
    1 H                |   2 C                |   4 H                |   109.35
    1 H                |   2 C                |   5 C                |   109.32
    3 H                |   2 C                |   4 H                |   109.69
    3 H                |   2 C                |   5 C                |   109.43
    4 H                |   2 C                |   5 C                |   109.19
    2 C                |   5 C                |   6 O                |   120.24
    2 C                |   5 C                |   7 N                |   116.74
    6 O                |   5 C                |   7 N                |   123.02
    5 C                |   7 N                |   8 H                |   117.73
    5 C                |   7 N                |   9 C                |   124.88
    8 H                |   7 N                |   9 C                |   117.38
    7 N                |   9 C                |  10 H                |   107.89
    7 N                |   9 C                |  11 C                |   107.83
    7 N                |   9 C                |  15 C                |   113.69
   10 H                |   9 C                |  11 C                |   107.35
   10 H                |   9 C                |  15 C                |   106.33
   11 C                |   9 C                |  15 C                |   113.44
    9 C                |  11 C                |  12 H                |   110.05
    9 C                |  11 C                |  13 H                |   109.64
    9 C                |  11 C                |  14 H                |   110.04
   12 H                |  11 C                |  13 H                |   108.85
   12 H                |  11 C                |  14 H                |   109.49
   13 H                |  11 C                |  14 H                |   108.75
    9 C                |  15 C                |  16 O                |   120.61
    9 C                |  15 C                |  17 N                |   118.26
   16 O                |  15 C                |  17 N                |   121.13
   15 C                |  17 N                |  18 H                |   117.85
   15 C                |  17 N                |  19 C                |   123.84
   18 H                |  17 N                |  19 C                |   118.29
   17 N                |  19 C                |  20 H                |   107.49
   17 N                |  19 C                |  21 C                |   110.41
   17 N                |  19 C                |  32 C                |   113.08
   20 H                |  19 C                |  21 C                |   106.67
   20 H                |  19 C                |  32 C                |   106.51
   21 C                |  19 C                |  32 C                |   112.28
   19 C                |  21 C                |  22 H                |   107.79
   19 C                |  21 C                |  23 H                |   108.88
   19 C                |  21 C                |  24 C                |   116.67
   22 H                |  21 C                |  23 H                |   107.03
   22 H                |  21 C                |  24 C                |   107.40
   23 H                |  21 C                |  24 C                |   108.67
   21 C                |  24 C                |  25 H                |   109.75
   21 C                |  24 C                |  26 H                |   108.55
   21 C                |  24 C                |  27 C                |   113.40
   25 H                |  24 C                |  26 H                |   107.43
   25 H                |  24 C                |  27 C                |   109.46
   26 H                |  24 C                |  27 C                |   108.05
   24 C                |  27 C                |  28 O                |   121.96
   24 C                |  27 C                |  29 N                |   118.49
   28 O                |  27 C                |  29 N                |   119.50
   27 C                |  29 N                |  30 H                |   119.49
   27 C                |  29 N                |  31 H                |   116.98
   30 H                |  29 N                |  31 H                |   120.38
   19 C                |  32 C                |  33 O                |   121.74
   19 C                |  32 C                |  34 N                |   117.82
   33 O                |  32 C                |  34 N                |   120.40
   32 C                |  34 N                |  35 H                |   118.03
   32 C                |  34 N                |  36 H                |   120.44
   35 H                |  34 N                |  36 H                |   121.52
 ------------------------------------------------------------------------------
                            number of included internuclear angles:         60
 ==============================================================================



  library name resolved from: environment
  library file name is: </opt/rit/el9/20230413/app/linux-rhel9-x86_64_v3/gcc-11.2.1/nwchem-7.2.0-oxtctbuhfuzyfaoziquq6bki22grib3g/share/nwchem/libraries/>
  


 Summary of "ao basis" -> "" (cartesian)
 ------------------------------------------------------------------------------
       Tag                 Description            Shells   Functions and Types
 ---------------- ------------------------------  ------  ---------------------
 *                        aug-cc-pvdz                 on all atoms 


                      Basis "ao basis" -> "ao basis" (cartesian)
                      -----
  H (Hydrogen)
  ------------
            Exponent  Coefficients 
       -------------- ---------------------------------------------------------
  1 S  1.30100000E+01  0.019685
  1 S  1.96200000E+00  0.137977
  1 S  4.44600000E-01  0.478148

  2 S  1.22000000E-01  1.000000

  3 S  2.97400000E-02  1.000000

  4 P  7.27000000E-01  1.000000

  5 P  1.41000000E-01  1.000000

  C (Carbon)
  ----------
            Exponent  Coefficients 
       -------------- ---------------------------------------------------------
  1 S  6.66500000E+03  0.000692
  1 S  1.00000000E+03  0.005329
  1 S  2.28000000E+02  0.027077
  1 S  6.47100000E+01  0.101718
  1 S  2.10600000E+01  0.274740
  1 S  7.49500000E+00  0.448564
  1 S  2.79700000E+00  0.285074
  1 S  5.21500000E-01  0.015204

  2 S  6.66500000E+03 -0.000146
  2 S  1.00000000E+03 -0.001154
  2 S  2.28000000E+02 -0.005725
  2 S  6.47100000E+01 -0.023312
  2 S  2.10600000E+01 -0.063955
  2 S  7.49500000E+00 -0.149981
  2 S  2.79700000E+00 -0.127262
  2 S  5.21500000E-01  0.544529

  3 S  1.59600000E-01  1.000000

  4 S  4.69000000E-02  1.000000

  5 P  9.43900000E+00  0.038109
  5 P  2.00200000E+00  0.209480
  5 P  5.45600000E-01  0.508557

  6 P  1.51700000E-01  1.000000

  7 P  4.04100000E-02  1.000000

  8 D  5.50000000E-01  1.000000

  9 D  1.51000000E-01  1.000000

  O (Oxygen)
  ----------
            Exponent  Coefficients 
       -------------- ---------------------------------------------------------
  1 S  1.17200000E+04  0.000710
  1 S  1.75900000E+03  0.005470
  1 S  4.00800000E+02  0.027837
  1 S  1.13700000E+02  0.104800
  1 S  3.70300000E+01  0.283062
  1 S  1.32700000E+01  0.448719
  1 S  5.02500000E+00  0.270952
  1 S  1.01300000E+00  0.015458

  2 S  1.17200000E+04 -0.000160
  2 S  1.75900000E+03 -0.001263
  2 S  4.00800000E+02 -0.006267
  2 S  1.13700000E+02 -0.025716
  2 S  3.70300000E+01 -0.070924
  2 S  1.32700000E+01 -0.165411
  2 S  5.02500000E+00 -0.116955
  2 S  1.01300000E+00  0.557368

  3 S  3.02300000E-01  1.000000

  4 S  7.89600000E-02  1.000000

  5 P  1.77000000E+01  0.043018
  5 P  3.85400000E+00  0.228913
  5 P  1.04600000E+00  0.508728

  6 P  2.75300000E-01  1.000000

  7 P  6.85600000E-02  1.000000

  8 D  1.18500000E+00  1.000000

  9 D  3.32000000E-01  1.000000

  N (Nitrogen)
  ------------
            Exponent  Coefficients 
       -------------- ---------------------------------------------------------
  1 S  9.04600000E+03  0.000700
  1 S  1.35700000E+03  0.005389
  1 S  3.09300000E+02  0.027406
  1 S  8.77300000E+01  0.103207
  1 S  2.85600000E+01  0.278723
  1 S  1.02100000E+01  0.448540
  1 S  3.83800000E+00  0.278238
  1 S  7.46600000E-01  0.015440

  2 S  9.04600000E+03 -0.000153
  2 S  1.35700000E+03 -0.001208
  2 S  3.09300000E+02 -0.005992
  2 S  8.77300000E+01 -0.024544
  2 S  2.85600000E+01 -0.067459
  2 S  1.02100000E+01 -0.158078
  2 S  3.83800000E+00 -0.121831
  2 S  7.46600000E-01  0.549003

  3 S  2.24800000E-01  1.000000

  4 S  6.12400000E-02  1.000000

  5 P  1.35500000E+01  0.039919
  5 P  2.91700000E+00  0.217169
  5 P  7.97300000E-01  0.510319

  6 P  2.18500000E-01  1.000000

  7 P  5.61100000E-02  1.000000

  8 D  8.17000000E-01  1.000000

  9 D  2.30000000E-01  1.000000



 Summary of "ao basis" -> "ao basis" (cartesian)
 ------------------------------------------------------------------------------
       Tag                 Description            Shells   Functions and Types
 ---------------- ------------------------------  ------  ---------------------
 H                        aug-cc-pvdz                5        9   3s2p
 C                        aug-cc-pvdz                9       25   4s3p2d
 O                        aug-cc-pvdz                9       25   4s3p2d
 N                        aug-cc-pvdz                9       25   4s3p2d


                                 NWChem SCF Module
                                 -----------------



  ao basis        = "ao basis"
  functions       =   612
  atoms           =    36
  closed shells   =    69
  open shells     =     0
  charge          =   0.00
  wavefunction    = RHF 
  input vectors   = atomic
  output vectors  = ./ALA_GLN_5.movecs
  use symmetry    = F
  symmetry adapt  = F


 Summary of "ao basis" -> "ao basis" (cartesian)
 ------------------------------------------------------------------------------
       Tag                 Description            Shells   Functions and Types
 ---------------- ------------------------------  ------  ---------------------
 H                        aug-cc-pvdz                5        9   3s2p
 C                        aug-cc-pvdz                9       25   4s3p2d
 O                        aug-cc-pvdz                9       25   4s3p2d
 N                        aug-cc-pvdz                9       25   4s3p2d



 Forming initial guess at       1.2s


 !! The overlap matrix has   5 vectors deemed linearly dependent with
    eigenvalues:
 2.84D-06 3.59D-06 7.94D-06 8.77D-06 9.04D-06


      Superposition of Atomic Density Guess
      -------------------------------------

 Sum of atomic energies:        -901.93634758

      Non-variational initial energy
      ------------------------------

 Total energy =    -913.561311
 1-e energy   =   -4190.194272
 2-e energy   =    1785.816832
 HOMO         =      -0.308249
 LUMO         =       0.004222


 Starting SCF solution at     318.0s



 ----------------------------------------------
         Quadratically convergent ROHF

 Convergence threshold     :          1.000E-04
 Maximum no. of iterations :           30
 Final Fock-matrix accuracy:          1.000E-10
 ----------------------------------------------


              iter       energy          gnorm     gmax       time
             ----- ------------------- --------- --------- --------
                 1     -906.1928912950  2.65D+00  1.50D-01    671.2
                 2     -906.5634093027  8.71D-01  4.35D-02   1329.3
                 3     -906.6298587197  6.93D-02  3.80D-03   2314.1
                 4     -906.6305873760  4.28D-03  3.54D-04   3699.7
                 5     -906.6305907397  9.76D-06  5.21D-07   6022.2


       Final RHF  results 
       ------------------ 

         Total SCF energy =   -906.630590739689
      One-electron energy =  -4203.777764402230
      Two-electron energy =   1806.331044885565
 Nuclear repulsion energy =   1490.816128776976

        Time for solution =   5711.3s


             Final eigenvalues
             -----------------

              1      
    1  -20.5475
    2  -20.5309
    3  -20.5262
    4  -20.5049
    5  -15.6222
    6  -15.6036
    7  -15.5922
    8  -15.5599
    9  -11.3829
   10  -11.3593
   11  -11.3579
   12  -11.3362
   13  -11.3070
   14  -11.2996
   15  -11.2560
   16  -11.2450
   17  -11.2374
   18  -11.2349
   19   -1.4124
   20   -1.3966
   21   -1.3826
   22   -1.3749
   23   -1.2536
   24   -1.2494
   25   -1.2355
   26   -1.1997
   27   -1.0866
   28   -1.0559
   29   -0.9938
   30   -0.9880
   31   -0.8966
   32   -0.8820
   33   -0.8250
   34   -0.8090
   35   -0.7884
   36   -0.7809
   37   -0.7568
   38   -0.7266
   39   -0.7137
   40   -0.6878
   41   -0.6789
   42   -0.6720
   43   -0.6687
   44   -0.6514
   45   -0.6392
   46   -0.6271
   47   -0.6121
   48   -0.5954
   49   -0.5870
   50   -0.5834
   51   -0.5731
   52   -0.5691
   53   -0.5656
   54   -0.5543
   55   -0.5430
   56   -0.5383
   57   -0.5241
   58   -0.5231
   59   -0.5136
   60   -0.5095
   61   -0.4927
   62   -0.4469
   63   -0.4452
   64   -0.4383
   65   -0.4276
   66   -0.4063
   67   -0.4003
   68   -0.3899
   69   -0.3823
   70    0.0225
   71    0.0340
   72    0.0422
   73    0.0449
   74    0.0502
   75    0.0524
   76    0.0571
   77    0.0644
   78    0.0676
   79    0.0715

                       ROHF Final Molecular Orbital Analysis
                       -------------------------------------

 Vector   19  Occ=2.000000D+00  E=-1.412406D+00
              MO Center= -1.0D-01,  2.6D+00, -1.3D+00, r^2= 1.2D+00
   Bfn.  Coefficient  Atom+Function         Bfn.  Coefficient  Atom+Function  
  ----- ------------  ---------------      ----- ------------  ---------------
   547      0.380344  33 O  s               546      0.348066  33 O  s         
   521      0.244944  32 C  s         

 Vector   20  Occ=2.000000D+00  E=-1.396608D+00
              MO Center=  5.9D-01, -1.8D+00, -1.0D+00, r^2= 2.1D+00
   Bfn.  Coefficient  Atom+Function         Bfn.  Coefficient  Atom+Function  
  ----- ------------  ---------------      ----- ------------  ---------------
    80      0.340601   6 O  s                79      0.332378   6 O  s         
    54      0.233045   5 C  s                12      0.169538   2 C  s         

 Vector   21  Occ=2.000000D+00  E=-1.382622D+00
              MO Center= -2.0D+00, -4.7D-01,  4.1D-01, r^2= 2.3D+00
   Bfn.  Coefficient  Atom+Function         Bfn.  Coefficient  Atom+Function  
  ----- ------------  ---------------      ----- ------------  ---------------
   250      0.362998  16 O  s               249      0.337835  16 O  s         
   224      0.231479  15 C  s         

 Vector   22  Occ=2.000000D+00  E=-1.374900D+00
              MO Center=  2.1D+00,  1.0D-01,  1.0D+00, r^2= 9.6D-01
   Bfn.  Coefficient  Atom+Function         Bfn.  Coefficient  Atom+Function  
  ----- ------------  ---------------      ----- ------------  ---------------
   454      0.378691  28 O  s               453      0.351035  28 O  s         
   428      0.248446  27 C  s         

 Vector   23  Occ=2.000000D+00  E=-1.253622D+00
              MO Center= -2.2D-01, -2.1D+00, -2.3D-01, r^2= 2.9D+00
   Bfn.  Coefficient  Atom+Function         Bfn.  Coefficient  Atom+Function  
  ----- ------------  ---------------      ----- ------------  ---------------
   105      0.377810   7 N  s               104      0.325090   7 N  s         
    80     -0.212672   6 O  s                79     -0.174337   6 O  s         

 Vector   24  Occ=2.000000D+00  E=-1.249433D+00
              MO Center= -9.1D-01,  3.2D+00, -8.8D-01, r^2= 2.7D+00
   Bfn.  Coefficient  Atom+Function         Bfn.  Coefficient  Atom+Function  
  ----- ------------  ---------------      ----- ------------  ---------------
   572      0.397197  34 N  s               571      0.354932  34 N  s         
   547     -0.222279  33 O  s               546     -0.188507  33 O  s         
   309     -0.177168  19 C  s               604      0.164750  36 H  s         
   524     -0.150441  32 C  px        

 Vector   25  Occ=2.000000D+00  E=-1.235546D+00
              MO Center= -9.9D-01,  2.8D-01, -1.1D-02, r^2= 3.0D+00
   Bfn.  Coefficient  Atom+Function         Bfn.  Coefficient  Atom+Function  
  ----- ------------  ---------------      ----- ------------  ---------------
   275      0.393851  17 N  s               274      0.324842  17 N  s         
   250     -0.194673  16 O  s               105     -0.159873   7 N  s         
   249     -0.157920  16 O  s         

 Vector   26  Occ=2.000000D+00  E=-1.199747D+00
              MO Center=  2.1D+00,  6.3D-01, -5.0D-02, r^2= 1.5D+00
   Bfn.  Coefficient  Atom+Function         Bfn.  Coefficient  Atom+Function  
  ----- ------------  ---------------      ----- ------------  ---------------
   478      0.361818  29 N  s               479      0.345677  29 N  s         
   454     -0.230205  28 O  s               433     -0.200901  27 C  pz        
   386     -0.192574  24 C  s               453     -0.186910  28 O  s         
   430      0.163094  27 C  s               502      0.158523  30 H  s         
   511      0.151172  31 H  s         

 Vector   27  Occ=2.000000D+00  E=-1.086584D+00
              MO Center= -1.2D-01,  1.3D+00,  8.3D-01, r^2= 4.5D+00
   Bfn.  Coefficient  Atom+Function         Bfn.  Coefficient  Atom+Function  
  ----- ------------  ---------------      ----- ------------  ---------------
   342      0.241946  21 C  s               385      0.186855  24 C  s         
   308      0.177882  19 C  s         

 Vector   28  Occ=2.000000D+00  E=-1.055862D+00
              MO Center= -7.1D-01, -2.0D+00,  2.5D-02, r^2= 6.1D+00
   Bfn.  Coefficient  Atom+Function         Bfn.  Coefficient  Atom+Function  
  ----- ------------  ---------------      ----- ------------  ---------------
   138      0.234293   9 C  s               172      0.202597  11 C  s         
    12     -0.200932   2 C  s               144     -0.154021   9 C  px        
   145     -0.153946   9 C  py              225      0.153830  15 C  s         

 Vector   29  Occ=2.000000D+00  E=-9.937871D-01
              MO Center=  2.0D-01,  1.3D+00,  4.8D-01, r^2= 6.0D+00
   Bfn.  Coefficient  Atom+Function         Bfn.  Coefficient  Atom+Function  
  ----- ------------  ---------------      ----- ------------  ---------------
   139      0.236630   9 C  s               385      0.233316  24 C  s         
   308     -0.222038  19 C  s               386      0.210516  24 C  s         
   309     -0.205604  19 C  s               145      0.194409   9 C  py        
   225     -0.186453  15 C  s               316      0.155317  19 C  pz        
   315     -0.153100  19 C  py        

 Vector   30  Occ=2.000000D+00  E=-9.879999D-01
              MO Center=  8.4D-01, -2.8D+00, -1.9D-01, r^2= 5.6D+00
   Bfn.  Coefficient  Atom+Function         Bfn.  Coefficient  Atom+Function  
  ----- ------------  ---------------      ----- ------------  ---------------
    11      0.308867   2 C  s               172      0.175367  11 C  s         
    55      0.167141   5 C  s               144     -0.158934   9 C  px        
    57      0.156479   5 C  px        

 Vector   31  Occ=2.000000D+00  E=-8.966204D-01
              MO Center= -1.1D+00, -1.1D+00,  3.5D-01, r^2= 8.1D+00
   Bfn.  Coefficient  Atom+Function         Bfn.  Coefficient  Atom+Function  
  ----- ------------  ---------------      ----- ------------  ---------------
   386     -0.311309  24 C  s               139      0.302603   9 C  s         
   145      0.279164   9 C  py              172     -0.217396  11 C  s         
   225     -0.182879  15 C  s               174     -0.159670  11 C  s         
   138      0.153937   9 C  s               173     -0.154067  11 C  s         

 Vector   32  Occ=2.000000D+00  E=-8.820231D-01
              MO Center= -3.5D-01,  1.5D+00,  2.9D-01, r^2= 8.1D+00
   Bfn.  Coefficient  Atom+Function         Bfn.  Coefficient  Atom+Function  
  ----- ------------  ---------------      ----- ------------  ---------------
   386      0.400548  24 C  s               316     -0.237166  19 C  pz        
   342     -0.196472  21 C  s               521      0.178457  32 C  s         
   309      0.174860  19 C  s               575     -0.163063  34 N  py        

 Vector   33  Occ=2.000000D+00  E=-8.249988D-01
              MO Center= -7.3D-01,  9.1D-01, -3.4D-01, r^2= 1.0D+01
   Bfn.  Coefficient  Atom+Function         Bfn.  Coefficient  Atom+Function  
  ----- ------------  ---------------      ----- ------------  ---------------
   575      0.221951  34 N  py              107     -0.166305   7 N  px        
   604      0.161666  36 H  s               386      0.156464  24 C  s         
   521     -0.155136  32 C  s               278      0.150697  17 N  py        
   574     -0.150672  34 N  px        

 Vector   34  Occ=2.000000D+00  E=-8.090003D-01
              MO Center= -1.0D-01, -1.3D+00, -2.6D-01, r^2= 7.9D+00
   Bfn.  Coefficient  Atom+Function         Bfn.  Coefficient  Atom+Function  
  ----- ------------  ---------------      ----- ------------  ---------------
   128      0.251263   8 H  s               109      0.240776   7 N  pz        
   139     -0.192174   9 C  s                54     -0.188724   5 C  s         
   105      0.182338   7 N  s               107     -0.175820   7 N  px        
    80      0.157908   6 O  s         

 Vector   35  Occ=2.000000D+00  E=-7.883832D-01
              MO Center= -5.2D-01,  2.3D-01, -3.2D-02, r^2= 4.6D+00
   Bfn.  Coefficient  Atom+Function         Bfn.  Coefficient  Atom+Function  
  ----- ------------  ---------------      ----- ------------  ---------------
   225      0.286528  15 C  s               277     -0.260159  17 N  px        
   298     -0.260193  18 H  s               275     -0.219824  17 N  s         
   250     -0.168382  16 O  s               279      0.163911  17 N  pz        
   224      0.151573  15 C  s         

 Vector   36  Occ=2.000000D+00  E=-7.809339D-01
              MO Center=  5.9D-01,  1.6D+00, -1.7D-01, r^2= 7.1D+00
   Bfn.  Coefficient  Atom+Function         Bfn.  Coefficient  Atom+Function  
  ----- ------------  ---------------      ----- ------------  ---------------
   483      0.257552  29 N  pz              604     -0.187194  36 H  s         
   428      0.167947  27 C  s               576     -0.168536  34 N  pz        
   502     -0.164601  30 H  s               574      0.156891  34 N  px        

 Vector   37  Occ=2.000000D+00  E=-7.568068D-01
              MO Center= -2.1D-01,  1.6D+00, -2.3D-01, r^2= 7.8D+00
   Bfn.  Coefficient  Atom+Function         Bfn.  Coefficient  Atom+Function  
  ----- ------------  ---------------      ----- ------------  ---------------
   576      0.208941  34 N  pz              604      0.207494  36 H  s         
   483      0.187837  29 N  pz              595     -0.176667  35 H  s         
   225     -0.168323  15 C  s               574     -0.162052  34 N  px        
   298      0.151007  18 H  s         

 Vector   38  Occ=2.000000D+00  E=-7.266230D-01
              MO Center= -9.9D-01,  1.1D-01, -2.4D-01, r^2= 1.0D+01
   Bfn.  Coefficient  Atom+Function         Bfn.  Coefficient  Atom+Function  
  ----- ------------  ---------------      ----- ------------  ---------------
   145      0.329563   9 C  py              139      0.278100   9 C  s         
   225     -0.235054  15 C  s               595      0.204729  35 H  s         
   228     -0.184389  15 C  py               55     -0.180122   5 C  s         
   575      0.166704  34 N  py              142      0.157054   9 C  py        
   576     -0.157128  34 N  pz              109      0.152000   7 N  pz        

 Vector   39  Occ=2.000000D+00  E=-7.137389D-01
              MO Center=  1.6D+00,  1.1D+00, -1.7D-01, r^2= 4.0D+00
   Bfn.  Coefficient  Atom+Function         Bfn.  Coefficient  Atom+Function  
  ----- ------------  ---------------      ----- ------------  ---------------
   482      0.332030  29 N  py              502      0.275280  30 H  s         
   511     -0.238723  31 H  s               503      0.184915  30 H  s         
   512     -0.150149  31 H  s         

 Vector   40  Occ=2.000000D+00  E=-6.878315D-01
              MO Center=  1.5D-01,  3.7D-01, -2.4D-01, r^2= 9.8D+00
   Bfn.  Coefficient  Atom+Function         Bfn.  Coefficient  Atom+Function  
  ----- ------------  ---------------      ----- ------------  ---------------
   225      0.174215  15 C  s               315      0.169658  19 C  py        
   551      0.160869  33 O  pz              575      0.160090  34 N  py        

 Vector   41  Occ=2.000000D+00  E=-6.788679D-01
              MO Center=  4.2D-01, -1.1D+00, -8.2D-01, r^2= 6.7D+00
   Bfn.  Coefficient  Atom+Function         Bfn.  Coefficient  Atom+Function  
  ----- ------------  ---------------      ----- ------------  ---------------
    80      0.241548   6 O  s                83      0.218569   6 O  py        
    84     -0.203390   6 O  pz               59      0.165693   5 C  pz        
    57     -0.163436   5 C  px              107      0.159785   7 N  px        

 Vector   42  Occ=2.000000D+00  E=-6.720386D-01
              MO Center= -4.2D-01, -1.6D+00, -7.2D-02, r^2= 6.4D+00
   Bfn.  Coefficient  Atom+Function         Bfn.  Coefficient  Atom+Function  
  ----- ------------  ---------------      ----- ------------  ---------------
   108      0.219502   7 N  py              143      0.196965   9 C  pz        
   162     -0.196222  10 H  s               144      0.156655   9 C  px        
   430      0.150349  27 C  s         

 Vector   43  Occ=2.000000D+00  E=-6.687164D-01
              MO Center=  3.2D-01,  1.1D+00,  1.3D-01, r^2= 7.4D+00
   Bfn.  Coefficient  Atom+Function         Bfn.  Coefficient  Atom+Function  
  ----- ------------  ---------------      ----- ------------  ---------------
   386      0.234224  24 C  s               480     -0.183012  29 N  s         
   389      0.174664  24 C  py              549      0.160707  33 O  px        
   409      0.158326  25 H  s               551     -0.155045  33 O  pz        

 Vector   44  Occ=2.000000D+00  E=-6.513917D-01
              MO Center= -2.1D-01,  7.3D-01,  4.3D-01, r^2= 7.3D+00
   Bfn.  Coefficient  Atom+Function         Bfn.  Coefficient  Atom+Function  
  ----- ------------  ---------------      ----- ------------  ---------------
   315      0.230107  19 C  py              457      0.191792  28 O  py        
   312      0.179388  19 C  py              278     -0.177951  17 N  py        
   433      0.169447  27 C  pz              252     -0.159504  16 O  px        
   250      0.153873  16 O  s         

 Vector   45  Occ=2.000000D+00  E=-6.391627D-01
              MO Center=  1.5D-01,  1.4D+00,  2.2D-01, r^2= 6.5D+00
   Bfn.  Coefficient  Atom+Function         Bfn.  Coefficient  Atom+Function  
  ----- ------------  ---------------      ----- ------------  ---------------
   343      0.234124  21 C  s               347      0.212722  21 C  pz        
   549     -0.175584  33 O  px        

 Vector   46  Occ=2.000000D+00  E=-6.271457D-01
              MO Center= -1.1D-03, -3.7D-01,  5.6D-02, r^2= 9.7D+00
   Bfn.  Coefficient  Atom+Function         Bfn.  Coefficient  Atom+Function  
  ----- ------------  ---------------      ----- ------------  ---------------
   139      0.270050   9 C  s               225     -0.177453  15 C  s         
   252     -0.164810  16 O  px              549     -0.160542  33 O  px        
   376      0.156542  23 H  s               457     -0.154605  28 O  py        
   250      0.150309  16 O  s               254      0.150500  16 O  pz        

 Vector   47  Occ=2.000000D+00  E=-6.121093D-01
              MO Center=  3.1D-01, -4.1D-01, -1.7D-01, r^2= 1.0D+01
   Bfn.  Coefficient  Atom+Function         Bfn.  Coefficient  Atom+Function  
  ----- ------------  ---------------      ----- ------------  ---------------
   309      0.184749  19 C  s                15     -0.158821   2 C  py        
    35      0.150232   3 H  s         

 Vector   48  Occ=2.000000D+00  E=-5.953975D-01
              MO Center=  7.7D-02,  4.0D-01,  1.2D-01, r^2= 9.7D+00
   Bfn.  Coefficient  Atom+Function         Bfn.  Coefficient  Atom+Function  
  ----- ------------  ---------------      ----- ------------  ---------------
   430      0.170435  27 C  s               524      0.158100  32 C  px        
   227     -0.150991  15 C  px        

 Vector   49  Occ=2.000000D+00  E=-5.869667D-01
              MO Center= -3.9D-01, -1.3D+00, -2.2D-01, r^2= 8.4D+00
   Bfn.  Coefficient  Atom+Function         Bfn.  Coefficient  Atom+Function  
  ----- ------------  ---------------      ----- ------------  ---------------
   139      0.256761   9 C  s               145      0.193084   9 C  py        
   252     -0.186330  16 O  px               84      0.176347   6 O  pz        
   163     -0.165124  10 H  s                58      0.157316   5 C  py        
    14      0.154576   2 C  px               59     -0.151417   5 C  pz        

 Vector   50  Occ=2.000000D+00  E=-5.834087D-01
              MO Center=  3.5D-01, -2.9D-01, -2.4D-02, r^2= 8.9D+00
   Bfn.  Coefficient  Atom+Function         Bfn.  Coefficient  Atom+Function  
  ----- ------------  ---------------      ----- ------------  ---------------
   333     -0.169095  20 H  s                59      0.160967   5 C  pz        
    84     -0.151309   6 O  pz        

 Vector   51  Occ=2.000000D+00  E=-5.730532D-01
              MO Center=  6.1D-01,  1.3D+00,  7.0D-01, r^2= 7.3D+00
   Bfn.  Coefficient  Atom+Function         Bfn.  Coefficient  Atom+Function  
  ----- ------------  ---------------      ----- ------------  ---------------
   309      0.194202  19 C  s               390      0.184149  24 C  pz        
   418      0.183908  26 H  s               526      0.178516  32 C  pz        
   346     -0.176940  21 C  py              549      0.165360  33 O  px        
   376      0.161405  23 H  s               333     -0.159742  20 H  s         

 Vector   52  Occ=2.000000D+00  E=-5.690879D-01
              MO Center=  1.0D+00, -2.5D+00, -3.1D-01, r^2= 7.2D+00
   Bfn.  Coefficient  Atom+Function         Bfn.  Coefficient  Atom+Function  
  ----- ------------  ---------------      ----- ------------  ---------------
    45      0.338984   4 H  s                44      0.276331   4 H  s         
    16     -0.259883   2 C  pz               56     -0.240936   5 C  s         
    13     -0.204358   2 C  s               175     -0.188011  11 C  px        
   106      0.183466   7 N  s                 1     -0.164976   1 H  s         
   205      0.163869  13 H  s                84     -0.154295   6 O  pz        

 Vector   53  Occ=2.000000D+00  E=-5.655658D-01
              MO Center= -3.7D-01,  5.1D-01,  4.1D-02, r^2= 9.1D+00
   Bfn.  Coefficient  Atom+Function         Bfn.  Coefficient  Atom+Function  
  ----- ------------  ---------------      ----- ------------  ---------------
   386      0.216732  24 C  s               333     -0.162907  20 H  s         
   279      0.155172  17 N  pz        

 Vector   54  Occ=2.000000D+00  E=-5.542573D-01
              MO Center=  3.6D-01, -2.3D-01,  5.0D-01, r^2= 9.4D+00
   Bfn.  Coefficient  Atom+Function         Bfn.  Coefficient  Atom+Function  
  ----- ------------  ---------------      ----- ------------  ---------------
   481      0.195390  29 N  px              343      0.193360  21 C  s         
   432      0.170923  27 C  py              456      0.160034  28 O  px        
   174      0.154235  11 C  s               177      0.151936  11 C  pz        

 Vector   55  Occ=2.000000D+00  E=-5.430103D-01
              MO Center= -1.6D+00, -2.0D+00,  1.6D-01, r^2= 7.2D+00
   Bfn.  Coefficient  Atom+Function         Bfn.  Coefficient  Atom+Function  
  ----- ------------  ---------------      ----- ------------  ---------------
   176      0.338199  11 C  py              214     -0.286045  14 H  s         
   215     -0.203540  14 H  s               142     -0.191512   9 C  py        
   206      0.187684  13 H  s               231      0.150084  15 C  py        

 Vector   56  Occ=2.000000D+00  E=-5.382975D-01
              MO Center=  6.0D-02, -2.0D+00,  2.8D-03, r^2= 9.1D+00
   Bfn.  Coefficient  Atom+Function         Bfn.  Coefficient  Atom+Function  
  ----- ------------  ---------------      ----- ------------  ---------------
   206      0.240366  13 H  s                45     -0.213817   4 H  s         
    44     -0.209914   4 H  s               139      0.200488   9 C  s         
   205      0.199657  13 H  s               175     -0.197531  11 C  px        
    14     -0.195027   2 C  px               56      0.188141   5 C  s         
   343      0.185187  21 C  s               386     -0.168991  24 C  s         

 Vector   57  Occ=2.000000D+00  E=-5.241142D-01
              MO Center= -2.9D-01, -1.2D+00,  3.4D-01, r^2= 1.0D+01
   Bfn.  Coefficient  Atom+Function         Bfn.  Coefficient  Atom+Function  
  ----- ------------  ---------------      ----- ------------  ---------------
   175      0.190172  11 C  px               55      0.173069   5 C  s         
   346      0.167481  21 C  py              366      0.158126  22 H  s         
   215      0.156167  14 H  s               376     -0.154490  23 H  s         
    12     -0.153187   2 C  s               367      0.151969  22 H  s         

 Vector   58  Occ=2.000000D+00  E=-5.230681D-01
              MO Center=  4.8D-01, -1.6D-01,  4.6D-01, r^2= 9.6D+00
   Bfn.  Coefficient  Atom+Function         Bfn.  Coefficient  Atom+Function  
  ----- ------------  ---------------      ----- ------------  ---------------
   376     -0.210360  23 H  s               375     -0.206228  23 H  s         
   346      0.193022  21 C  py              367      0.178663  22 H  s         
   409     -0.179386  25 H  s                36     -0.173822   3 H  s         
   410     -0.174126  25 H  s               419      0.168241  26 H  s         
    83     -0.161783   6 O  py                1      0.150679   1 H  s         

 Vector   59  Occ=2.000000D+00  E=-5.135806D-01
              MO Center= -7.9D-01, -1.2D+00,  3.0D-01, r^2= 9.2D+00
   Bfn.  Coefficient  Atom+Function         Bfn.  Coefficient  Atom+Function  
  ----- ------------  ---------------      ----- ------------  ---------------
   174     -0.238782  11 C  s               177     -0.229619  11 C  pz        
   143      0.222383   9 C  pz              196     -0.219604  12 H  s         
   162     -0.216183  10 H  s                56      0.202124   5 C  s         
   173      0.196843  11 C  s               139     -0.188745   9 C  s         
   147     -0.187898   9 C  px              197     -0.178690  12 H  s         

 Vector   60  Occ=2.000000D+00  E=-5.095326D-01
              MO Center= -6.0D-02,  5.7D-01,  6.6D-01, r^2= 8.2D+00
   Bfn.  Coefficient  Atom+Function         Bfn.  Coefficient  Atom+Function  
  ----- ------------  ---------------      ----- ------------  ---------------
   347      0.200796  21 C  pz              391      0.171146  24 C  px        
   390     -0.168604  24 C  pz              343      0.162139  21 C  s         

 Vector   61  Occ=2.000000D+00  E=-4.926743D-01
              MO Center= -1.8D-01,  9.1D-01,  7.6D-01, r^2= 6.7D+00
   Bfn.  Coefficient  Atom+Function         Bfn.  Coefficient  Atom+Function  
  ----- ------------  ---------------      ----- ------------  ---------------
   345      0.252569  21 C  px              388     -0.241303  24 C  px        
   333      0.192948  20 H  s               252      0.185317  16 O  px        
   311     -0.176516  19 C  px              391     -0.170117  24 C  px        
   418     -0.159852  26 H  s               254      0.155810  16 O  pz        

 Vector   62  Occ=2.000000D+00  E=-4.469341D-01
              MO Center= -4.9D-01,  7.4D-01, -4.9D-01, r^2= 7.6D+00
   Bfn.  Coefficient  Atom+Function         Bfn.  Coefficient  Atom+Function  
  ----- ------------  ---------------      ----- ------------  ---------------
   550     -0.337486  33 O  py              309      0.327227  19 C  s         
   253      0.277789  16 O  py              553     -0.278192  33 O  py        
   256      0.217395  16 O  py              522     -0.207064  32 C  s         
   528      0.178376  32 C  py              529     -0.162080  32 C  pz        
   551      0.154812  33 O  pz        

 Vector   63  Occ=2.000000D+00  E=-4.451596D-01
              MO Center= -3.9D-01,  4.9D-01, -3.5D-01, r^2= 8.3D+00
   Bfn.  Coefficient  Atom+Function         Bfn.  Coefficient  Atom+Function  
  ----- ------------  ---------------      ----- ------------  ---------------
   253      0.287088  16 O  py              522      0.251296  32 C  s         
   309     -0.237793  19 C  s               256      0.232262  16 O  py        
   550      0.227981  33 O  py              551     -0.225138  33 O  pz        
   553      0.195002  33 O  py              554     -0.181708  33 O  pz        
   528     -0.179645  32 C  py              139      0.169238   9 C  s         

 Vector   64  Occ=2.000000D+00  E=-4.383292D-01
              MO Center= -5.3D-01,  2.9D+00, -1.1D+00, r^2= 3.7D+00
   Bfn.  Coefficient  Atom+Function         Bfn.  Coefficient  Atom+Function  
  ----- ------------  ---------------      ----- ------------  ---------------
   574      0.288894  34 N  px              576      0.265186  34 N  pz        
   577      0.262310  34 N  px              549     -0.248109  33 O  px        
   579      0.234585  34 N  pz              550     -0.217845  33 O  py        
   551     -0.217679  33 O  pz              552     -0.199286  33 O  px        
   553     -0.173692  33 O  py              554     -0.174357  33 O  pz        

 Vector   65  Occ=2.000000D+00  E=-4.275863D-01
              MO Center=  8.5D-01, -1.9D+00, -1.1D+00, r^2= 3.0D+00
   Bfn.  Coefficient  Atom+Function         Bfn.  Coefficient  Atom+Function  
  ----- ------------  ---------------      ----- ------------  ---------------
    82      0.493676   6 O  px               85      0.402218   6 O  px        
   105      0.170089   7 N  s                17      0.164371   2 C  px        
    83     -0.164293   6 O  py              144     -0.156995   9 C  px        
    13      0.150455   2 C  s         

 Vector   66  Occ=2.000000D+00  E=-4.062757D-01
              MO Center=  1.7D+00,  2.2D-01,  1.1D+00, r^2= 3.5D+00
   Bfn.  Coefficient  Atom+Function         Bfn.  Coefficient  Atom+Function  
  ----- ------------  ---------------      ----- ------------  ---------------
   458      0.393094  28 O  pz              461      0.316417  28 O  pz        
   457      0.236899  28 O  py              456     -0.227817  28 O  px        
   386      0.191197  24 C  s               389      0.183330  24 C  py        
   460      0.181771  28 O  py              459     -0.178301  28 O  px        
   429     -0.173969  27 C  s               367     -0.160474  22 H  s         

 Vector   67  Occ=2.000000D+00  E=-4.003204D-01
              MO Center=  2.3D-01, -7.9D-01,  1.6D-01, r^2= 6.9D+00
   Bfn.  Coefficient  Atom+Function         Bfn.  Coefficient  Atom+Function  
  ----- ------------  ---------------      ----- ------------  ---------------
   253      0.250907  16 O  py              481     -0.242800  29 N  px        
   108     -0.226923   7 N  py              480     -0.217475  29 N  s         
   111     -0.215303   7 N  py              484     -0.207203  29 N  px        
   256      0.198252  16 O  py              275     -0.162945  17 N  s         
   458      0.162229  28 O  pz              106      0.159051   7 N  s         

 Vector   68  Occ=2.000000D+00  E=-3.898983D-01
              MO Center= -1.2D+00,  3.3D-01,  2.8D-01, r^2= 3.8D+00
   Bfn.  Coefficient  Atom+Function         Bfn.  Coefficient  Atom+Function  
  ----- ------------  ---------------      ----- ------------  ---------------
   279      0.349827  17 N  pz              282      0.327375  17 N  pz        
   254     -0.257297  16 O  pz              277      0.242717  17 N  px        
   280      0.219008  17 N  px              309      0.212322  19 C  s         
   257     -0.203272  16 O  pz              276     -0.190936  17 N  s         
   252     -0.177868  16 O  px        

 Vector   69  Occ=2.000000D+00  E=-3.823344D-01
              MO Center=  1.1D+00, -3.9D-01,  9.2D-02, r^2= 6.0D+00
   Bfn.  Coefficient  Atom+Function         Bfn.  Coefficient  Atom+Function  
  ----- ------------  ---------------      ----- ------------  ---------------
   481      0.337802  29 N  px              484      0.305308  29 N  px        
   456     -0.271342  28 O  px              480      0.258380  29 N  s         
   459     -0.218692  28 O  px              106      0.197888   7 N  s         
   108     -0.197568   7 N  py              111     -0.185506   7 N  py        
   386      0.178813  24 C  s               253      0.172623  16 O  py        

 Vector   70  Occ=0.000000D+00  E= 2.251149D-02
              MO Center= -1.9D+00,  5.4D+00, -1.1D-01, r^2= 1.5D+01
   Bfn.  Coefficient  Atom+Function         Bfn.  Coefficient  Atom+Function  
  ----- ------------  ---------------      ----- ------------  ---------------
   573      3.457620  34 N  s               318     -3.069611  19 C  py        
   430     -2.967816  27 C  s               531     -2.794735  32 C  py        
   226     -2.298325  15 C  s               234     -1.855929  15 C  py        
   606      1.830843  36 H  s               597      1.785515  35 H  s         
   523     -1.400161  32 C  s                56     -1.367680   5 C  s         

 Vector   71  Occ=0.000000D+00  E= 3.400015D-02
              MO Center= -4.3D-01, -5.3D+00,  1.4D-01, r^2= 1.9D+01
   Bfn.  Coefficient  Atom+Function         Bfn.  Coefficient  Atom+Function  
  ----- ------------  ---------------      ----- ------------  ---------------
   234      4.185044  15 C  py              216      2.526210  14 H  s         
   148      2.398097   9 C  py               37      2.364134   3 H  s         
   226     -2.166769  15 C  s                63     -2.092124   5 C  px        
   387     -2.065325  24 C  s               318      1.832666  19 C  py        
    56      1.791965   5 C  s               233      1.785387  15 C  px        

 Vector   72  Occ=0.000000D+00  E= 4.217023D-02
              MO Center= -1.9D-01,  3.4D+00,  1.9D+00, r^2= 2.9D+01
   Bfn.  Coefficient  Atom+Function         Bfn.  Coefficient  Atom+Function  
  ----- ------------  ---------------      ----- ------------  ---------------
   368      4.187194  22 H  s               430     -4.103701  27 C  s         
   387      3.076872  24 C  s               234     -2.859200  15 C  py        
   420      2.513623  26 H  s               353     -2.437223  21 C  pz        
   226     -2.056169  15 C  s               597     -1.893038  35 H  s         
    56     -1.821479   5 C  s               317     -1.786619  19 C  px        

 Vector   73  Occ=0.000000D+00  E= 4.492883D-02
              MO Center= -5.9D-01,  8.9D-01, -1.3D-01, r^2= 4.4D+01
   Bfn.  Coefficient  Atom+Function         Bfn.  Coefficient  Atom+Function  
  ----- ------------  ---------------      ----- ------------  ---------------
    63      4.428978   5 C  px              147      3.612609   9 C  px        
   394      2.551176  24 C  px              344      2.522108  21 C  s         
    56     -2.459703   5 C  s               334      2.414215  20 H  s         
   140      2.203454   9 C  s               411     -2.151765  25 H  s         
    13     -2.127175   2 C  s               207      1.989749  13 H  s         

 Vector   74  Occ=0.000000D+00  E= 5.021804D-02
              MO Center= -5.7D-01, -2.4D-01, -2.1D-01, r^2= 4.6D+01
   Bfn.  Coefficient  Atom+Function         Bfn.  Coefficient  Atom+Function  
  ----- ------------  ---------------      ----- ------------  ---------------
    63      3.888637   5 C  px               56     -2.772253   5 C  s         
    64     -2.450859   5 C  py               37     -2.369559   3 H  s         
   147      2.311299   9 C  px               13     -2.172570   2 C  s         
   606     -2.145128  36 H  s               207      2.023912  13 H  s         
   106      1.871966   7 N  s               411      1.867954  25 H  s         

 Vector   75  Occ=0.000000D+00  E= 5.243121D-02
              MO Center= -2.0D-01, -2.2D+00, -3.3D-01, r^2= 3.7D+01
   Bfn.  Coefficient  Atom+Function         Bfn.  Coefficient  Atom+Function  
  ----- ------------  ---------------      ----- ------------  ---------------
   164      3.511579  10 H  s               430     -3.113656  27 C  s         
   149      3.065399   9 C  pz               46      2.823228   4 H  s         
   198     -2.459572  12 H  s               148     -2.373550   9 C  py        
   531      1.880166  32 C  py              130     -1.849035   8 H  s         
   106     -1.772254   7 N  s               344      1.726164  21 C  s         

 Vector   76  Occ=0.000000D+00  E= 5.707901D-02
              MO Center= -3.2D-01, -1.4D+00,  7.9D-01, r^2= 4.0D+01
   Bfn.  Coefficient  Atom+Function         Bfn.  Coefficient  Atom+Function  
  ----- ------------  ---------------      ----- ------------  ---------------
   216      3.613343  14 H  s               368      3.527205  22 H  s         
   334     -3.276031  20 H  s               430      3.128093  27 C  s         
   198     -2.341551  12 H  s               352     -2.307090  21 C  py        
   106      2.185160   7 N  s               377     -2.167714  23 H  s         
     3     -2.080914   1 H  s               318      1.989794  19 C  py        

 Vector   77  Occ=0.000000D+00  E= 6.438433D-02
              MO Center=  3.7D-01, -4.0D-02, -2.9D-02, r^2= 4.2D+01
   Bfn.  Coefficient  Atom+Function         Bfn.  Coefficient  Atom+Function  
  ----- ------------  ---------------      ----- ------------  ---------------
   164      3.942339  10 H  s               148     -3.861032   9 C  py        
   411     -3.719220  25 H  s               420      3.736806  26 H  s         
    63      3.551251   5 C  px              234     -3.047619  15 C  py        
    56     -3.029119   5 C  s               480     -2.971157  29 N  s         
   396     -2.743002  24 C  pz              174     -2.644360  11 C  s         

 Vector   78  Occ=0.000000D+00  E= 6.761204D-02
              MO Center=  4.3D-01,  1.9D+00,  1.3D+00, r^2= 3.8D+01
   Bfn.  Coefficient  Atom+Function         Bfn.  Coefficient  Atom+Function  
  ----- ------------  ---------------      ----- ------------  ---------------
   368      5.527152  22 H  s               420     -3.200763  26 H  s         
   411     -3.182211  25 H  s               606     -2.859333  36 H  s         
    46      2.796031   4 H  s               504      2.446616  30 H  s         
   430     -2.410789  27 C  s                 3     -2.331291   1 H  s         
   377      2.163305  23 H  s               394      2.045895  24 C  px        

 Vector   79  Occ=0.000000D+00  E= 7.149221D-02
              MO Center=  3.3D-02, -3.0D-01, -2.9D-01, r^2= 4.4D+01
   Bfn.  Coefficient  Atom+Function         Bfn.  Coefficient  Atom+Function  
  ----- ------------  ---------------      ----- ------------  ---------------
   480      4.046906  29 N  s                56     -3.673655   5 C  s         
   430     -3.649834  27 C  s               276      3.512928  17 N  s         
   207     -3.487799  13 H  s               106      3.436949   7 N  s         
    63      3.339772   5 C  px              420     -3.325189  26 H  s         
   130      3.061336   8 H  s               164      2.809721  10 H  s         

 Vector   80  Occ=0.000000D+00  E= 7.251612D-02
              MO Center=  3.0D-02, -1.1D+00,  2.3D-02, r^2= 4.8D+01
   Bfn.  Coefficient  Atom+Function         Bfn.  Coefficient  Atom+Function  
  ----- ------------  ---------------      ----- ------------  ---------------
   216      4.254778  14 H  s               411     -3.777253  25 H  s         
    37     -3.689237   3 H  s               207     -3.541957  13 H  s         
   420      3.407130  26 H  s               234      3.342326  15 C  py        
   334     -3.329792  20 H  s               396     -3.219528  24 C  pz        
   113     -3.128361   7 N  px              606      2.853348  36 H  s         

 Vector   81  Occ=0.000000D+00  E= 7.680669D-02
              MO Center= -7.6D-01, -3.2D-01,  5.5D-01, r^2= 4.1D+01
   Bfn.  Coefficient  Atom+Function         Bfn.  Coefficient  Atom+Function  
  ----- ------------  ---------------      ----- ------------  ---------------
   334      7.752353  20 H  s               164     -4.457887  10 H  s         
   317      4.377272  19 C  px              174      3.856328  11 C  s         
     3     -3.511139   1 H  s               368     -3.385891  22 H  s         
    37      2.730446   3 H  s               420      2.733654  26 H  s         
   284      2.662777  17 N  py              149     -2.645202   9 C  pz        

 Vector   82  Occ=0.000000D+00  E= 8.221582D-02
              MO Center=  4.2D-01, -1.5D+00,  8.7D-01, r^2= 4.2D+01
   Bfn.  Coefficient  Atom+Function         Bfn.  Coefficient  Atom+Function  
  ----- ------------  ---------------      ----- ------------  ---------------
   430     12.237530  27 C  s                 3     -5.151477   1 H  s         
   480     -4.874568  29 N  s               198      4.613772  12 H  s         
   300      4.392183  18 H  s               344     -4.358111  21 C  s         
   216     -3.836734  14 H  s               334     -3.378220  20 H  s         
    46      3.232160   4 H  s                63      2.721361   5 C  px        

 Vector   83  Occ=0.000000D+00  E= 8.873326D-02
              MO Center= -1.7D-01,  5.9D-01,  1.1D+00, r^2= 3.6D+01
   Bfn.  Coefficient  Atom+Function         Bfn.  Coefficient  Atom+Function  
  ----- ------------  ---------------      ----- ------------  ---------------
   377      8.600951  23 H  s               411      6.924767  25 H  s         
   368     -5.529629  22 H  s               300     -5.414966  18 H  s         
   352      4.960011  21 C  py              420     -4.103759  26 H  s         
   396      3.534912  24 C  pz              318     -3.402891  19 C  py        
   395     -3.357173  24 C  py              573      3.222081  34 N  s         

 Vector   84  Occ=0.000000D+00  E= 9.259501D-02
              MO Center= -4.6D-02, -3.0D-01, -5.6D-01, r^2= 4.5D+01
   Bfn.  Coefficient  Atom+Function         Bfn.  Coefficient  Atom+Function  
  ----- ------------  ---------------      ----- ------------  ---------------
   334      6.077020  20 H  s                56      5.478677   5 C  s         
   430      5.258228  27 C  s               317      4.737543  19 C  px        
   147     -4.708425   9 C  px               63     -4.625794   5 C  px        
   207     -4.369601  13 H  s               318      3.793658  19 C  py        
   480     -3.716444  29 N  s               606     -3.722785  36 H  s         

 Vector   85  Occ=0.000000D+00  E= 9.774935D-02
              MO Center=  1.2D-01, -2.4D+00,  4.7D-01, r^2= 3.7D+01
   Bfn.  Coefficient  Atom+Function         Bfn.  Coefficient  Atom+Function  
  ----- ------------  ---------------      ----- ------------  ---------------
   174      6.898392  11 C  s               130      6.785347   8 H  s         
   430      6.795633  27 C  s               198     -5.277134  12 H  s         
   226     -4.574578  15 C  s                 3     -3.958057   1 H  s         
    46      3.684645   4 H  s                37     -3.610108   3 H  s         
   480     -3.573710  29 N  s               207      3.181704  13 H  s         

 Vector   86  Occ=0.000000D+00  E= 1.072008D-01
              MO Center= -8.3D-02,  8.2D-01,  3.2D-01, r^2= 3.9D+01
   Bfn.  Coefficient  Atom+Function         Bfn.  Coefficient  Atom+Function  
  ----- ------------  ---------------      ----- ------------  ---------------
   430     10.888963  27 C  s               300      8.122594  18 H  s         
   377      6.112578  23 H  s               480     -6.058968  29 N  s         
   531      5.835779  32 C  py              334     -5.458201  20 H  s         
   352      5.006831  21 C  py              368     -5.028554  22 H  s         
   513     -4.666894  31 H  s               317     -4.036780  19 C  px        

 Vector   87  Occ=0.000000D+00  E= 1.134956D-01
              MO Center=  8.5D-01, -9.8D-01, -9.7D-01, r^2= 3.2D+01
   Bfn.  Coefficient  Atom+Function         Bfn.  Coefficient  Atom+Function  
  ----- ------------  ---------------      ----- ------------  ---------------
   430     12.486569  27 C  s                56    -10.811463   5 C  s         
    63      9.703866   5 C  px               13     -9.021710   2 C  s         
   226      7.317571  15 C  s               234     -6.404862  15 C  py        
   147      5.932391   9 C  px              140      5.886541   9 C  s         
   148     -5.545716   9 C  py               65     -5.156689   5 C  pz        

 Vector   88  Occ=0.000000D+00  E= 1.185764D-01
              MO Center=  9.7D-01, -9.1D-01, -1.2D+00, r^2= 3.5D+01
   Bfn.  Coefficient  Atom+Function         Bfn.  Coefficient  Atom+Function  
  ----- ------------  ---------------      ----- ------------  ---------------
    56     13.263689   5 C  s               300    -10.372856  18 H  s         
   147     -7.681843   9 C  px              513     -7.585199  31 H  s         
    64      7.147773   5 C  py              504      6.899492  30 H  s         
    63     -6.337781   5 C  px               13      6.007640   2 C  s         
   234      5.583752  15 C  py              164      5.350325  10 H  s         

 Vector   89  Occ=0.000000D+00  E= 1.243033D-01
              MO Center=  2.0D+00,  7.7D-01,  3.9D-01, r^2= 3.3D+01
   Bfn.  Coefficient  Atom+Function         Bfn.  Coefficient  Atom+Function  
  ----- ------------  ---------------      ----- ------------  ---------------
   430     31.666434  27 C  s               387    -17.725012  24 C  s         
   344    -12.550642  21 C  s               513      7.964119  31 H  s         
   480     -7.884697  29 N  s               523      7.549118  32 C  s         
   437     -6.788200  27 C  px              438      6.153821  27 C  py        
   395      5.935616  24 C  py              174      5.189434  11 C  s         

 Vector   90  Occ=0.000000D+00  E= 1.273374D-01
              MO Center= -1.1D+00,  3.1D+00, -1.7D-01, r^2= 2.7D+01
   Bfn.  Coefficient  Atom+Function         Bfn.  Coefficient  Atom+Function  
  ----- ------------  ---------------      ----- ------------  ---------------
[...]
   344     11.668154  21 C  s               147     11.182118   9 C  px        
   106    -10.150027   7 N  s               276     -9.987073  17 N  s         
   430    -10.017613  27 C  s               300     -9.822917  18 H  s         
   480      9.215953  29 N  s               140      8.933788   9 C  s         

 Vector  170  Occ=0.000000D+00  E= 4.324704D-01
              MO Center= -4.6D-01,  2.3D-01,  1.5D-01, r^2= 2.1D+01
   Bfn.  Coefficient  Atom+Function         Bfn.  Coefficient  Atom+Function  
  ----- ------------  ---------------      ----- ------------  ---------------
   430     17.842946  27 C  s                56     12.194943   5 C  s         
   140    -11.860443   9 C  s                13     11.768665   2 C  s         
   344    -11.084577  21 C  s                63    -10.688498   5 C  px        
   480    -10.713232  29 N  s               113    -10.416466   7 N  px        
   226     -9.443314  15 C  s               174      8.156894  11 C  s         

 Vector  171  Occ=0.000000D+00  E= 4.328944D-01
              MO Center=  3.1D-01, -7.0D-01, -1.3D-01, r^2= 1.9D+01
   Bfn.  Coefficient  Atom+Function         Bfn.  Coefficient  Atom+Function  
  ----- ------------  ---------------      ----- ------------  ---------------
   276     15.832815  17 N  s               480     11.269214  29 N  s         
   344     -9.780770  21 C  s               226     -9.312516  15 C  s         
   317     -9.128684  19 C  px              140     -7.911254   9 C  s         
   234     -7.377836  15 C  py              233     -6.621675  15 C  px        
   334     -5.146600  20 H  s               439      4.822795  27 C  pz        

 Vector  172  Occ=0.000000D+00  E= 4.386736D-01
              MO Center= -1.8D-03,  3.1D-01, -4.4D-01, r^2= 2.3D+01
   Bfn.  Coefficient  Atom+Function         Bfn.  Coefficient  Atom+Function  
  ----- ------------  ---------------      ----- ------------  ---------------
   430     24.410655  27 C  s               276    -13.869152  17 N  s         
   387    -13.917690  24 C  s               226     13.521892  15 C  s         
    13    -10.315842   2 C  s                63     10.302759   5 C  px        
   147      9.696102   9 C  px              317      7.493967  19 C  px        
   523      7.260760  32 C  s               140      7.055148   9 C  s         

 Vector  173  Occ=0.000000D+00  E= 4.412994D-01
              MO Center=  3.3D-01,  5.1D-02, -9.4D-02, r^2= 2.1D+01
   Bfn.  Coefficient  Atom+Function         Bfn.  Coefficient  Atom+Function  
  ----- ------------  ---------------      ----- ------------  ---------------
   430     17.659200  27 C  s               387    -11.419774  24 C  s         
   480    -10.800759  29 N  s                63      8.980315   5 C  px        
    56     -8.698146   5 C  s                13     -8.540969   2 C  s         
   226      8.390914  15 C  s               438      8.256709  27 C  py        
   174     -7.842137  11 C  s               148     -7.734589   9 C  py        

 Vector  174  Occ=0.000000D+00  E= 4.485540D-01
              MO Center=  9.8D-02, -8.0D-01, -1.6D-01, r^2= 2.1D+01
   Bfn.  Coefficient  Atom+Function         Bfn.  Coefficient  Atom+Function  
  ----- ------------  ---------------      ----- ------------  ---------------
    56     14.364854   5 C  s               284     10.480017  17 N  py        
    12      9.564514   2 C  s               480     -8.351445  29 N  s         
   319      7.942443  19 C  pz               36     -7.173077   3 H  s         
   387     -6.933466  24 C  s               351      6.822960  21 C  px        
   234      5.887479  15 C  py              173      5.705958  11 C  s         

 Vector  175  Occ=0.000000D+00  E= 4.513079D-01
              MO Center=  3.0D-01, -1.7D+00,  8.6D-02, r^2= 2.0D+01
   Bfn.  Coefficient  Atom+Function         Bfn.  Coefficient  Atom+Function  
  ----- ------------  ---------------      ----- ------------  ---------------
   480     11.022607  29 N  s               430     -9.286832  27 C  s         
    56      7.807538   5 C  s               113     -7.556136   7 N  px        
   439      6.917294  27 C  pz              163     -6.309513  10 H  s         
    13      6.040225   2 C  s               226     -5.571797  15 C  s         
   174      5.187658  11 C  s                12      5.077406   2 C  s         

 Vector  176  Occ=0.000000D+00  E= 4.543454D-01
              MO Center=  6.0D-01, -9.6D-01,  4.4D-01, r^2= 2.0D+01
   Bfn.  Coefficient  Atom+Function         Bfn.  Coefficient  Atom+Function  
  ----- ------------  ---------------      ----- ------------  ---------------
   226     10.645874  15 C  s               430     10.159511  27 C  s         
   147      9.885593   9 C  px              343      9.434621  21 C  s         
    63      9.228314   5 C  px              480     -9.026881  29 N  s         
   523      7.954799  32 C  s               438     -7.622542  27 C  py        
   234     -7.193815  15 C  py              276     -6.794060  17 N  s         

 Vector  177  Occ=0.000000D+00  E= 4.580057D-01
              MO Center=  4.2D-01,  1.6D+00,  5.3D-01, r^2= 1.8D+01
   Bfn.  Coefficient  Atom+Function         Bfn.  Coefficient  Atom+Function  
  ----- ------------  ---------------      ----- ------------  ---------------
   480    -16.704080  29 N  s               387     16.210693  24 C  s         
   430      9.045095  27 C  s               344     -8.703703  21 C  s         
   226     -8.446879  15 C  s               234     -8.070530  15 C  py        
   106      5.812112   7 N  s               276      5.266642  17 N  s         
   394     -5.135646  24 C  px              140     -5.028820   9 C  s         

 Vector  178  Occ=0.000000D+00  E= 4.683248D-01
              MO Center=  2.9D-01,  4.0D-01, -1.5D-01, r^2= 2.2D+01
   Bfn.  Coefficient  Atom+Function         Bfn.  Coefficient  Atom+Function  
  ----- ------------  ---------------      ----- ------------  ---------------
   387     -8.668395  24 C  s               283      8.305269  17 N  px        
    56     -6.231421   5 C  s               480      5.949727  29 N  s         
   174      5.717097  11 C  s               343     -5.632344  21 C  s         
   523     -5.560094  32 C  s                13     -4.939882   2 C  s         
    45      4.942530   4 H  s                64     -4.889577   5 C  py        

 Vector  179  Occ=0.000000D+00  E= 4.707506D-01
              MO Center= -4.3D-01, -1.7D-01,  8.2D-01, r^2= 2.0D+01
   Bfn.  Coefficient  Atom+Function         Bfn.  Coefficient  Atom+Function  
  ----- ------------  ---------------      ----- ------------  ---------------
   387    -13.096042  24 C  s               226     12.783992  15 C  s         
   480    -12.821501  29 N  s               234     12.270858  15 C  py        
   276    -11.232677  17 N  s               386     -8.885226  24 C  s         
   430      8.404888  27 C  s               140      6.937791   9 C  s         
   319      6.421321  19 C  pz              438     -6.103707  27 C  py        

 Vector  180  Occ=0.000000D+00  E= 4.727947D-01
              MO Center=  7.1D-01, -7.2D-02, -9.2D-02, r^2= 1.8D+01
   Bfn.  Coefficient  Atom+Function         Bfn.  Coefficient  Atom+Function  
  ----- ------------  ---------------      ----- ------------  ---------------
   430     21.532695  27 C  s               344    -16.872706  21 C  s         
   387     16.104046  24 C  s               226    -15.951141  15 C  s         
    56    -13.161262   5 C  s               276     10.989732  17 N  s         
   480    -10.576406  29 N  s               140    -10.395684   9 C  s         
   234    -10.111524  15 C  py              106      7.279232   7 N  s         

 Vector  181  Occ=0.000000D+00  E= 4.774175D-01
              MO Center= -6.2D-01, -1.4D+00,  6.0D-02, r^2= 2.0D+01
   Bfn.  Coefficient  Atom+Function         Bfn.  Coefficient  Atom+Function  
  ----- ------------  ---------------      ----- ------------  ---------------
   106     13.698789   7 N  s                56     -8.893182   5 C  s         
   276      8.251103  17 N  s               284     -8.256714  17 N  py        
   226     -7.879570  15 C  s               149     -7.187791   9 C  pz        
   235      6.630446  15 C  pz               13     -6.492505   2 C  s         
   387      6.353510  24 C  s                64     -6.026357   5 C  py        

 Vector  182  Occ=0.000000D+00  E= 4.784450D-01
              MO Center= -9.9D-02,  2.6D-01,  1.8D-01, r^2= 1.9D+01
   Bfn.  Coefficient  Atom+Function         Bfn.  Coefficient  Atom+Function  
  ----- ------------  ---------------      ----- ------------  ---------------
   480     23.118136  29 N  s               430    -20.530849  27 C  s         
   344     16.557683  21 C  s               226     15.546151  15 C  s         
    56    -14.878616   5 C  s               318     10.156625  19 C  py        
   140      9.559204   9 C  s               319     -8.973346  19 C  pz        
    63      7.672629   5 C  px               12     -7.287748   2 C  s         

 Vector  183  Occ=0.000000D+00  E= 4.838248D-01
              MO Center= -7.5D-01, -6.1D-02, -6.6D-02, r^2= 2.1D+01
   Bfn.  Coefficient  Atom+Function         Bfn.  Coefficient  Atom+Function  
  ----- ------------  ---------------      ----- ------------  ---------------
   430     16.589730  27 C  s               480    -12.377252  29 N  s         
   387    -10.287516  24 C  s                63      9.107170   5 C  px        
   226      8.507374  15 C  s               386     -7.122900  24 C  s         
   410      6.297223  25 H  s                13     -5.840186   2 C  s         
   163     -5.540596  10 H  s               174      5.437432  11 C  s         

 Vector  184  Occ=0.000000D+00  E= 4.914963D-01
              MO Center=  1.6D-01, -1.4D+00,  1.0D-01, r^2= 2.1D+01
   Bfn.  Coefficient  Atom+Function         Bfn.  Coefficient  Atom+Function  
  ----- ------------  ---------------      ----- ------------  ---------------
   174     24.261036  11 C  s                56    -12.949890   5 C  s         
   147     10.455666   9 C  px              148      9.357762   9 C  py        
   215     -6.729946  14 H  s               343      6.481426  21 C  s         
   376     -6.229953  23 H  s                45      6.031625   4 H  s         
   197     -5.940482  12 H  s               438      5.933849  27 C  py        

 Vector  185  Occ=0.000000D+00  E= 4.964119D-01
              MO Center= -1.0D-01, -2.7D-01,  2.9D-01, r^2= 1.8D+01
   Bfn.  Coefficient  Atom+Function         Bfn.  Coefficient  Atom+Function  
  ----- ------------  ---------------      ----- ------------  ---------------
   174      8.917360  11 C  s               318      8.343951  19 C  py        
   276      7.677723  17 N  s               387     -7.063445  24 C  s         
   480     -5.881833  29 N  s               147      5.162229   9 C  px        
   148      5.043857   9 C  py               55      4.568944   5 C  s         
   333     -4.311725  20 H  s                13      3.907802   2 C  s         

 Vector  186  Occ=0.000000D+00  E= 5.021063D-01
              MO Center= -6.8D-02, -5.9D-02,  2.2D-01, r^2= 2.1D+01
   Bfn.  Coefficient  Atom+Function         Bfn.  Coefficient  Atom+Function  
  ----- ------------  ---------------      ----- ------------  ---------------
   387     17.584220  24 C  s               226    -15.497319  15 C  s         
   140     -9.449244   9 C  s               430     -9.434268  27 C  s         
   174      9.004819  11 C  s               419     -7.204594  26 H  s         
   386      7.103474  24 C  s                63     -6.763145   5 C  px        
   233     -6.549794  15 C  px               13      6.434103   2 C  s         


 center of mass
 --------------
 x =   0.00399926 y =   0.03085859 z =  -0.02555675

 moments of inertia (a.u.)
 ------------------
        5112.411573156215           0.000000000000           0.000000000000
           0.000000000000        3328.761681117477           0.000000000001
           0.000000000000           0.000000000001        6632.656708606674

  Mulliken analysis of the total density
  --------------------------------------

    Atom       Charge   Shell Charges
 -----------   ------   -------------------------------------------------------
    1 H    1     0.74   0.75  0.01  0.01  0.03 -0.07
    2 C    6     6.41   2.01  0.66  0.37  0.19  2.07  0.95 -0.03  0.06  0.13
    3 H    1     0.85   0.77  0.12  0.02  0.03 -0.09
    4 H    1     0.98   0.77  0.23  0.01  0.03 -0.06
    5 C    6     5.22   2.01  0.68  0.06  0.11  1.89  0.30 -0.08  0.24  0.01
    6 O    8     8.86   2.01  0.82  1.01  0.18  2.80  1.87  0.17  0.02 -0.01
    7 N    7     7.43   2.01  0.72  0.81 -0.21  2.45  1.46  0.09  0.05  0.05
    8 H    1     0.97   0.77  0.22 -0.03  0.05 -0.04
    9 C    6     6.63   2.01  0.66  0.08 -0.02  1.99  1.70 -0.14  0.14  0.20
   10 H    1     1.03   0.78  0.20  0.01  0.03  0.01
   11 C    6     5.69   2.01  0.66  0.21  0.26  2.04  0.48 -0.05  0.07  0.01
   12 H    1     0.91   0.77  0.16  0.03  0.03 -0.07
   13 H    1     0.96   0.77  0.24  0.00  0.03 -0.08
   14 H    1     0.94   0.77  0.21  0.01  0.03 -0.08
   15 C    6     4.59   2.01  0.68 -0.04  0.02  1.88  0.03  0.12  0.23 -0.34
   16 O    8     8.83   2.01  0.82  1.03  0.17  2.79  1.85  0.15  0.01 -0.01
   17 N    7     7.46   2.01  0.72  0.85 -0.08  2.45  1.46 -0.04  0.05  0.04
   18 H    1     0.87   0.73  0.24 -0.05  0.06 -0.11
   19 C    6     6.27   2.01  0.66  0.22 -0.01  2.00  1.26 -0.00  0.14 -0.00
   20 H    1     1.17   0.78  0.34  0.02  0.03  0.00
   21 C    6     5.84   2.01  0.66  0.37 -0.06  2.02  0.59  0.01  0.09  0.13
   22 H    1     0.96   0.79  0.23 -0.00  0.03 -0.08
   23 H    1     0.99   0.78  0.27 -0.02  0.03 -0.07
   24 C    6     6.37   2.01  0.66  0.61 -0.06  2.05  0.89  0.02  0.09  0.10
   25 H    1     0.89   0.79  0.14 -0.03  0.03 -0.04
   26 H    1     0.96   0.78  0.23  0.00  0.03 -0.07
   27 C    6     4.82   2.01  0.68  0.10  0.05  1.90 -0.15  0.05  0.24 -0.08
   28 O    8     8.88   2.01  0.81  1.03  0.20  2.81  1.86  0.15  0.02 -0.00
   29 N    7     7.05   2.01  0.72  0.75 -0.20  2.47  1.24  0.06  0.04 -0.04
   30 H    1     0.93   0.73  0.22  0.01  0.06 -0.08
   31 H    1     0.93   0.75  0.19 -0.02  0.05 -0.04
   32 C    6     4.41   2.01  0.68  0.01  0.12  1.89 -0.29 -0.05  0.23 -0.18
   33 O    8     8.87   2.01  0.82  1.04  0.17  2.80  1.88  0.14  0.02  0.00
   34 N    7     7.38   2.01  0.72  0.89 -0.10  2.46  1.28  0.08  0.04  0.00
   35 H    1     0.96   0.75  0.18 -0.01  0.05 -0.02
   36 H    1     0.96   0.76  0.21 -0.01  0.05 -0.05

       Multipole analysis of the density wrt the origin
       ------------------------------------------------

     L   x y z        total         open         nuclear
     -   - - -        -----         ----         -------
     0   0 0 0      0.000000      0.000000    138.000000

     1   1 0 0     -0.755376      0.000000     -0.000000
     1   0 1 0      0.806094      0.000000     -0.000000
     1   0 0 1      0.110058      0.000000     -0.000000

     2   2 0 0    -87.178302      0.000000   1337.828137
     2   1 1 0     -5.668029      0.000000      0.060520
     2   1 0 1      2.483604      0.000000     -2.358874
     2   0 2 0    -53.802825      0.000000   2363.585738
     2   0 1 1      0.623231      0.000000     10.221963
     2   0 0 2    -88.061235      0.000000    500.131691


 Task  times  cpu:     6029.5s     wall:     6148.5s


                                NWChem Input Module
                                -------------------


 Summary of allocated global arrays
-----------------------------------
  No active global arrays


MA_summarize_allocated_blocks: starting scan ...
MA_summarize_allocated_blocks: scan completed: 0 heap blocks, 0 stack blocks
MA usage statistics:

	allocation statistics:
					      heap	     stack
					      ----	     -----
	current number of blocks	         0	         0
	maximum number of blocks	        16	        14
	current total bytes		         0	         0
	maximum total bytes		    129856	  28238888
	maximum total K-bytes		       130	     28239
	maximum total M-bytes		         1	        29


                                     CITATION
                                     --------
                Please cite the following reference when publishing
                           results obtained with NWChem:

          E. Apra, E. J. Bylaska, W. A. de Jong, N. Govind, K. Kowalski,
       T. P. Straatsma, M. Valiev, H. J. J. van Dam, Y. Alexeev, J. Anchell,
       V. Anisimov, F. W. Aquino, R. Atta-Fynn, J. Autschbach, N. P. Bauman,
     J. C. Becca, D. E. Bernholdt, K. Bhaskaran-Nair, S. Bogatko, P. Borowski,
         J. Boschen, J. Brabec, A. Bruner, E. Cauet, Y. Chen, G. N. Chuev,
      C. J. Cramer, J. Daily, M. J. O. Deegan, T. H. Dunning Jr., M. Dupuis,
   K. G. Dyall, G. I. Fann, S. A. Fischer, A. Fonari, H. Fruchtl, L. Gagliardi,
      J. Garza, N. Gawande, S. Ghosh, K. Glaesemann, A. W. Gotz, J. Hammond,
       V. Helms, E. D. Hermes, K. Hirao, S. Hirata, M. Jacquelin, L. Jensen,
   B. G. Johnson, H. Jonsson, R. A. Kendall, M. Klemm, R. Kobayashi, V. Konkov,
      S. Krishnamoorthy, M. Krishnan, Z. Lin, R. D. Lins, R. J. Littlefield,
      A. J. Logsdail, K. Lopata, W. Ma, A. V. Marenich, J. Martin del Campo,
   D. Mejia-Rodriguez, J. E. Moore, J. M. Mullin, T. Nakajima, D. R. Nascimento,
    J. A. Nichols, P. J. Nichols, J. Nieplocha, A. Otero-de-la-Roza, B. Palmer,
    A. Panyala, T. Pirojsirikul, B. Peng, R. Peverati, J. Pittner, L. Pollack,
   R. M. Richard, P. Sadayappan, G. C. Schatz, W. A. Shelton, D. W. Silverstein,
   D. M. A. Smith, T. A. Soares, D. Song, M. Swart, H. L. Taylor, G. S. Thomas,
            V. Tipparaju, D. G. Truhlar, K. Tsemekhman, T. Van Voorhis,
      A. Vazquez-Mayagoitia, P. Verma, O. Villa, A. Vishnu, K. D. Vogiatzis,
        D. Wang, J. H. Weare, M. J. Williamson, T. L. Windus, K. Wolinski,
        A. T. Wong, Q. Wu, C. Yang, Q. Yu, M. Zacharias, Z. Zhang, Y. Zhao,
                                and R. J. Harrison
                        "NWChem: Past, present, and future
                         J. Chem. Phys. 152, 184102 (2020)
                               doi:10.1063/5.0004997

                                      AUTHORS
                                      -------
  E. Apra, E. J. Bylaska, N. Govind, K. Kowalski, M. Valiev, D. Mejia-Rodriguez,
       A. Kunitsa, N. P. Bauman, A. Panyala, W. A. de Jong, T. P. Straatsma,
   H. J. J. van Dam, D. Wang, T. L. Windus, J. Hammond, J. Autschbach, A. Woods,
    K. Bhaskaran-Nair, J. Brabec, K. Lopata, S. A. Fischer, S. Krishnamoorthy,
     M. Jacquelin, W. Ma, M. Klemm, O. Villa, Y. Chen, V. Anisimov, F. Aquino,
     S. Hirata, M. T. Hackler, E. Hermes, L. Jensen, J. E. Moore, J. C. Becca,
      V. Konjkov, T. Risthaus, M. Malagoli, A. Marenich, A. Otero-de-la-Roza,
        J. Mullin, P. Nichols, R. Peverati, J. Pittner, Y. Zhao, P.-D. Fan,
        A. Fonari, M. J. Williamson, R. J. Harrison, J. R. Rehr, M. Dupuis,
     D. Silverstein, D. M. A. Smith, J. Nieplocha, V. Tipparaju, M. Krishnan,
     B. E. Van Kuiken, A. Vazquez-Mayagoitia, M. Swart, Q. Wu, T. Van Voorhis,
     A. A. Auer, M. Nooijen, L. D. Crosby, E. Brown, G. Cisneros, G. I. Fann,
   H. Fruchtl, J. Garza, K. Hirao, R. A. Kendall, J. A. Nichols, K. Tsemekhman,
    K. Wolinski, J. Anchell, D. E. Bernholdt, P. Borowski, T. Clark, D. Clerc,
   H. Dachsel, M. J. O. Deegan, K. Dyall, D. Elwood, E. Glendening, M. Gutowski,
   A. C. Hess, J. Jaffe, B. G. Johnson, J. Ju, R. Kobayashi, R. Kutteh, Z. Lin,
   R. Littlefield, X. Long, B. Meng, T. Nakajima, S. Niu, L. Pollack, M. Rosing,
   K. Glaesemann, G. Sandrone, M. Stave, H. Taylor, G. Thomas, J. H. van Lenthe,
                               A. T. Wong, Z. Zhang.

 Total times  cpu:     6029.6s     wall:     6148.8s
