export TMOUT=5400
export TMPDIR=/tmp
export PTMPDIR=/tmp/ptmp
 argument  1 = ALA_CYS_2.nw
                                         
                                         


             Northwest Computational Chemistry Package (NWChem) 7.2.0
             --------------------------------------------------------


                    Environmental Molecular Sciences Laboratory
                       Pacific Northwest National Laboratory
                                Richland, WA 99352

                              Copyright (c) 1994-2022
                       Pacific Northwest National Laboratory
                            Battelle Memorial Institute

             NWChem is an open-source computational chemistry package
                        distributed under the terms of the
                      Educational Community License (ECL) 2.0
             A copy of the license is included with this distribution
                              in the LICENSE.TXT file

                                  ACKNOWLEDGMENT
                                  --------------

            This software and its documentation were developed at the
            EMSL at Pacific Northwest National Laboratory, a multiprogram
            national laboratory, operated for the U.S. Department of Energy
            by Battelle under Contract Number DE-AC05-76RL01830. Support
            for this work was provided by the Department of Energy Office
            of Biological and Environmental Research, Office of Basic
            Energy Sciences, and the Office of Advanced Scientific Computing.


           Job information
           ---------------

    hostname        = nova18-36
    program         = /opt/rit/el9/20230413/app/linux-rhel9-x86_64_v3/gcc-11.2.1/nwchem-7.2.0-oxtctbuhfuzyfaoziquq6bki22grib3g/bin/nwchem
    date            = Thu Jun 26 09:36:11 2025

    compiled        = Wed_May_17_23:46:39_2023
    source          = /tmp/root/spack-stage/spack-stage-nwchem-7.2.0-oxtctbuhfuzyfaoziquq6bki22grib3g/spack-src
    nwchem branch   = 7.2.0
    nwchem revision = d0d141fd
    ga revision     = 5.8.0
    use scalapack   = T
    input           = ALA_CYS_2.nw
    prefix          = ALA_CYS_2.
    data base       = ./ALA_CYS_2.db
    status          = startup
    nproc           =        8
    time left       =     -1s



           Memory information
           ------------------

    heap     =   26214394 doubles =    200.0 Mbytes
    stack    =   26214399 doubles =    200.0 Mbytes
    global   =   52428800 doubles =    400.0 Mbytes (distinct from heap & stack)
    total    =  104857593 doubles =    800.0 Mbytes
    verify   = yes
    hardfail = no 


           Directory information
           ---------------------

  0 permanent = .
  0 scratch   = .




                                NWChem Input Module
                                -------------------



 Scaling coordinates for geometry "geometry" by  1.889725989
 (inverse scale =  0.529177249)

 C1  symmetry detected

          ------
          auto-z
          ------
  no constraints, skipping    0.0000000000000000     
  no constraints, skipping    0.0000000000000000     


                             Geometry "geometry" -> ""
                             -------------------------

 Output coordinates in angstroms (scale by  1.889725989 to convert to a.u.)

  No.       Tag          Charge          X              Y              Z
 ---- ---------------- ---------- -------------- -------------- --------------
    1 H                    1.0000    -3.09239255    -1.97234461    -0.34162201
    2 C                    6.0000    -2.71667668    -2.36552376     0.60050417
    3 H                    1.0000    -2.81674618    -3.44927421     0.62067941
    4 H                    1.0000    -3.28300966    -1.93391032     1.42550587
    5 C                    6.0000    -1.26264713    -1.99093000     0.75882530
    6 O                    8.0000    -0.90483610    -1.28472865     1.69056181
    7 N                    7.0000    -0.42140028    -2.43986461    -0.17270971
    8 H                    1.0000    -0.79332770    -3.01543817    -0.90998514
    9 C                    6.0000     1.03392611    -2.23328490    -0.13629674
   10 H                    1.0000     1.40529873    -2.60899899     0.81887199
   11 C                    6.0000     1.65495346    -3.07884773    -1.25555075
   12 H                    1.0000     1.37926872    -4.12651561    -1.13124897
   13 H                    1.0000     1.31380941    -2.72286799    -2.22966119
   14 H                    1.0000     2.74267432    -2.99724400    -1.21184546
   15 C                    6.0000     1.48847585    -0.75648889    -0.23022806
   16 O                    8.0000     2.66146599    -0.46304311    -0.02133168
   17 N                    7.0000     0.57963052     0.17346681    -0.53554193
   18 H                    1.0000    -0.37343906    -0.12429145    -0.67010562
   19 C                    6.0000     0.80997510     1.61909116    -0.48367072
   20 H                    1.0000     1.82867140     1.82892847    -0.81607281
   21 C                    6.0000    -0.16712808     2.29319281    -1.45963246
   22 H                    1.0000    -0.07366373     3.37697575    -1.35776520
   23 H                    1.0000     0.09257900     2.01587073    -2.48233022
   24 S                   16.0000    -1.88454527     1.79372003    -1.11559297
   25 H                    1.0000    -2.48180422     2.74087671    -1.84935994
   26 C                    6.0000     0.69241039     2.22241584     0.93325266
   27 O                    8.0000     0.97605468     3.39984529     1.12010772
   28 N                    7.0000     0.27400567     1.46941003     1.94479244
   29 H                    1.0000     0.20903508     1.88884529     2.85668163
   30 H                    1.0000     0.00890865     0.50444673     1.79403632

      Atomic Mass 
      ----------- 

      H                  1.007825
      C                 12.000000
      O                 15.994910
      N                 14.003070
      S                 31.972070


 Effective nuclear repulsion energy (a.u.)    1210.0234536361

            Nuclear Dipole moment (a.u.) 
            ----------------------------
        X                 Y               Z
 ---------------- ---------------- ----------------
    -0.0000000000    -0.0000000000     0.0000000000



                                Z-matrix (autoz)
                                -------- 

 Units are Angstrom for bonds and degrees for angles

      Type          Name      I     J     K     L     M      Value
      ----------- --------  ----- ----- ----- ----- ----- ----------
    1 Stretch                  1     2                       1.08782
    2 Stretch                  2     3                       1.08855
    3 Stretch                  2     4                       1.08979
    4 Stretch                  2     5                       1.50983
    5 Stretch                  5     6                       1.22265
    6 Stretch                  5     7                       1.33304
    7 Stretch                  7     8                       1.00657
    8 Stretch                  7     9                       1.47037
    9 Stretch                  9    10                       1.09152
   10 Stretch                  9    11                       1.53407
   11 Stretch                  9    15                       1.54802
   12 Stretch                 11    12                       1.09044
   13 Stretch                 11    13                       1.09178
   14 Stretch                 11    14                       1.09165
   15 Stretch                 15    16                       1.22705
   16 Stretch                 15    17                       1.33568
   17 Stretch                 17    18                       1.00753
   18 Stretch                 17    19                       1.46478
   19 Stretch                 19    20                       1.09191
   20 Stretch                 19    21                       1.53676
   21 Stretch                 19    26                       1.54450
   22 Stretch                 21    22                       1.09256
   23 Stretch                 21    23                       1.09099
   24 Stretch                 21    24                       1.82136
   25 Stretch                 24    25                       1.33874
   26 Stretch                 26    27                       1.22544
   27 Stretch                 26    28                       1.32864
   28 Stretch                 28    29                       1.00583
   29 Stretch                 28    30                       1.01201
   30 Bend                     1     2     3               110.12964
   31 Bend                     1     2     4               109.45108
   32 Bend                     1     2     5               109.49724
   33 Bend                     2     5     6               120.33459
   34 Bend                     2     5     7               116.80264
   35 Bend                     3     2     4               109.42067
   36 Bend                     3     2     5               109.48731
   37 Bend                     4     2     5               108.83358
   38 Bend                     5     7     8               118.11476
   39 Bend                     5     7     9               124.05566
   40 Bend                     6     5     7               122.84496
   41 Bend                     7     9    10               108.06308
   42 Bend                     7     9    11               107.76865
   43 Bend                     7     9    15               115.03414
   44 Bend                     8     7     9               117.65818
   45 Bend                     9    11    12               110.12395
   46 Bend                     9    11    13               110.16655
   47 Bend                     9    11    14               109.44803
   48 Bend                     9    15    16               119.90150
   49 Bend                     9    15    17               118.57313
   50 Bend                    10     9    11               108.11918
   51 Bend                    10     9    15               106.35381
   52 Bend                    11     9    15               111.26538
   53 Bend                    12    11    13               109.63169
   54 Bend                    12    11    14               108.61246
   55 Bend                    13    11    14               108.82549
   56 Bend                    15    17    18               117.93218
   57 Bend                    15    17    19               124.89265
   58 Bend                    16    15    17               121.52493
   59 Bend                    17    19    20               109.00149
   60 Bend                    17    19    21               108.08564
   61 Bend                    17    19    26               113.95604
   62 Bend                    18    17    19               116.43324
   63 Bend                    19    21    22               108.75488
   64 Bend                    19    21    23               109.41844
   65 Bend                    19    21    24               111.05605
   66 Bend                    19    26    27               119.84054
   67 Bend                    19    26    28               120.06803
   68 Bend                    20    19    21               108.39449
   69 Bend                    20    19    26               105.97527
   70 Bend                    21    19    26               111.27660
   71 Bend                    21    24    25                97.07246
   72 Bend                    22    21    23               108.61368
   73 Bend                    22    21    24               109.57730
   74 Bend                    23    21    24               109.37933
   75 Bend                    26    28    29               118.30945
   76 Bend                    26    28    30               120.62921
   77 Bend                    27    26    28               120.08903
   78 Bend                    29    28    30               121.04791
   79 Torsion                  1     2     5     6         118.14210
   80 Torsion                  1     2     5     7         -60.36623
   81 Torsion                  2     5     7     8          -1.41242
   82 Torsion                  2     5     7     9        -176.53365
   83 Torsion                  3     2     5     6        -121.02361
   84 Torsion                  3     2     5     7          60.46806
   85 Torsion                  4     2     5     6          -1.46218
   86 Torsion                  4     2     5     7        -179.97051
   87 Torsion                  5     7     9    10          54.75761
   88 Torsion                  5     7     9    11         171.37413
   89 Torsion                  5     7     9    15         -63.87484
   90 Torsion                  6     5     7     8        -179.88000
   91 Torsion                  6     5     7     9           4.99877
   92 Torsion                  7     9    11    12         -56.96967
   93 Torsion                  7     9    11    13          64.07861
   94 Torsion                  7     9    11    14        -176.30157
   95 Torsion                  7     9    15    16         169.79978
   96 Torsion                  7     9    15    17          -9.96195
   97 Torsion                  8     7     9    10        -120.38420
   98 Torsion                  8     7     9    11          -3.76767
   99 Torsion                  8     7     9    15         120.98335
  100 Torsion                  9    15    17    18           1.49750
  101 Torsion                  9    15    17    19         171.25085
  102 Torsion                 10     9    11    12          59.61025
  103 Torsion                 10     9    11    13        -179.34147
  104 Torsion                 10     9    11    14         -59.72165
  105 Torsion                 10     9    15    16          50.21648
  106 Torsion                 10     9    15    17        -129.54524
  107 Torsion                 11     9    15    16         -67.29923
  108 Torsion                 11     9    15    17         112.93905
  109 Torsion                 12    11     9    15         176.04993
  110 Torsion                 13    11     9    15         -62.90179
  111 Torsion                 14    11     9    15          56.71803
  112 Torsion                 15    17    19    20          37.20654
  113 Torsion                 15    17    19    21         154.82277
  114 Torsion                 15    17    19    26         -80.92665
  115 Torsion                 16    15    17    18        -178.26017
  116 Torsion                 16    15    17    19          -8.50683
  117 Torsion                 17    19    21    22         174.47120
  118 Torsion                 17    19    21    23         -67.03185
  119 Torsion                 17    19    21    24          53.81348
  120 Torsion                 17    19    26    27         173.77293
  121 Torsion                 17    19    26    28          -6.79055
  122 Torsion                 18    17    19    20        -152.90192
  123 Torsion                 18    17    19    21         -35.28568
  124 Torsion                 18    17    19    26          88.96489
  125 Torsion                 19    21    24    25         165.80529
  126 Torsion                 19    26    28    29         179.88465
  127 Torsion                 19    26    28    30          -1.43434
  128 Torsion                 20    19    21    22         -67.52310
  129 Torsion                 20    19    21    23          50.97385
  130 Torsion                 20    19    21    24         171.81918
  131 Torsion                 20    19    26    27          53.91887
  132 Torsion                 20    19    26    28        -126.64461
  133 Torsion                 21    19    26    27         -63.70877
  134 Torsion                 21    19    26    28         115.72775
  135 Torsion                 22    21    19    26          48.62903
  136 Torsion                 22    21    24    25          45.63452
  137 Torsion                 23    21    19    26         167.12598
  138 Torsion                 23    21    24    25         -73.32633
  139 Torsion                 24    21    19    26         -72.02869
  140 Torsion                 27    26    28    29          -0.68024
  141 Torsion                 27    26    28    30         178.00076


            XYZ format geometry
            -------------------
    30
 geometry
 H                    -3.09239255    -1.97234461    -0.34162201
 C                    -2.71667668    -2.36552376     0.60050417
 H                    -2.81674618    -3.44927421     0.62067941
 H                    -3.28300966    -1.93391032     1.42550587
 C                    -1.26264713    -1.99093000     0.75882530
 O                    -0.90483610    -1.28472865     1.69056181
 N                    -0.42140028    -2.43986461    -0.17270971
 H                    -0.79332770    -3.01543817    -0.90998514
 C                     1.03392611    -2.23328490    -0.13629674
 H                     1.40529873    -2.60899899     0.81887199
 C                     1.65495346    -3.07884773    -1.25555075
 H                     1.37926872    -4.12651561    -1.13124897
 H                     1.31380941    -2.72286799    -2.22966119
 H                     2.74267432    -2.99724400    -1.21184546
 C                     1.48847585    -0.75648889    -0.23022806
 O                     2.66146599    -0.46304311    -0.02133168
 N                     0.57963052     0.17346681    -0.53554193
 H                    -0.37343906    -0.12429145    -0.67010562
 C                     0.80997510     1.61909116    -0.48367072
 H                     1.82867140     1.82892847    -0.81607281
 C                    -0.16712808     2.29319281    -1.45963246
 H                    -0.07366373     3.37697575    -1.35776520
 H                     0.09257900     2.01587073    -2.48233022
 S                    -1.88454527     1.79372003    -1.11559297
 H                    -2.48180422     2.74087671    -1.84935994
 C                     0.69241039     2.22241584     0.93325266
 O                     0.97605468     3.39984529     1.12010772
 N                     0.27400567     1.46941003     1.94479244
 H                     0.20903508     1.88884529     2.85668163
 H                     0.00890865     0.50444673     1.79403632

 ==============================================================================
                                internuclear distances
 ------------------------------------------------------------------------------
       center one      |      center two      | atomic units |  angstroms
 ------------------------------------------------------------------------------
    2 C                |   1 H                |     2.05568  |     1.08782
    3 H                |   2 C                |     2.05706  |     1.08855
    4 H                |   2 C                |     2.05941  |     1.08979
    5 C                |   2 C                |     2.85317  |     1.50983
    6 O                |   5 C                |     2.31048  |     1.22265
    7 N                |   5 C                |     2.51908  |     1.33304
    8 H                |   7 N                |     1.90215  |     1.00657
    9 C                |   7 N                |     2.77859  |     1.47037
   10 H                |   9 C                |     2.06268  |     1.09152
   11 C                |   9 C                |     2.89898  |     1.53407
   12 H                |  11 C                |     2.06063  |     1.09044
   13 H                |  11 C                |     2.06317  |     1.09178
   14 H                |  11 C                |     2.06292  |     1.09165
   15 C                |   9 C                |     2.92533  |     1.54802
   16 O                |  15 C                |     2.31879  |     1.22705
   17 N                |  15 C                |     2.52406  |     1.33568
   18 H                |  17 N                |     1.90395  |     1.00753
   19 C                |  17 N                |     2.76803  |     1.46478
   20 H                |  19 C                |     2.06341  |     1.09191
   21 C                |  19 C                |     2.90406  |     1.53676
   22 H                |  21 C                |     2.06465  |     1.09256
   23 H                |  21 C                |     2.06168  |     1.09099
   24 S                |  21 C                |     3.44187  |     1.82136
   25 H                |  24 S                |     2.52986  |     1.33874
   26 C                |  19 C                |     2.91869  |     1.54450
   27 O                |  26 C                |     2.31575  |     1.22544
   28 N                |  26 C                |     2.51077  |     1.32864
   29 H                |  28 N                |     1.90074  |     1.00583
   30 H                |  28 N                |     1.91242  |     1.01201
 ------------------------------------------------------------------------------
                         number of included internuclear distances:         29
 ==============================================================================



 ==============================================================================
                                 internuclear angles
 ------------------------------------------------------------------------------
        center 1       |       center 2       |       center 3       |  degrees
 ------------------------------------------------------------------------------
    1 H                |   2 C                |   3 H                |   110.13
    1 H                |   2 C                |   4 H                |   109.45
    1 H                |   2 C                |   5 C                |   109.50
    3 H                |   2 C                |   4 H                |   109.42
    3 H                |   2 C                |   5 C                |   109.49
    4 H                |   2 C                |   5 C                |   108.83
    2 C                |   5 C                |   6 O                |   120.33
    2 C                |   5 C                |   7 N                |   116.80
    6 O                |   5 C                |   7 N                |   122.84
    5 C                |   7 N                |   8 H                |   118.11
    5 C                |   7 N                |   9 C                |   124.06
    8 H                |   7 N                |   9 C                |   117.66
    7 N                |   9 C                |  10 H                |   108.06
    7 N                |   9 C                |  11 C                |   107.77
    7 N                |   9 C                |  15 C                |   115.03
   10 H                |   9 C                |  11 C                |   108.12
   10 H                |   9 C                |  15 C                |   106.35
   11 C                |   9 C                |  15 C                |   111.27
    9 C                |  11 C                |  12 H                |   110.12
    9 C                |  11 C                |  13 H                |   110.17
    9 C                |  11 C                |  14 H                |   109.45
   12 H                |  11 C                |  13 H                |   109.63
   12 H                |  11 C                |  14 H                |   108.61
   13 H                |  11 C                |  14 H                |   108.83
    9 C                |  15 C                |  16 O                |   119.90
    9 C                |  15 C                |  17 N                |   118.57
   16 O                |  15 C                |  17 N                |   121.52
   15 C                |  17 N                |  18 H                |   117.93
   15 C                |  17 N                |  19 C                |   124.89
   18 H                |  17 N                |  19 C                |   116.43
   17 N                |  19 C                |  20 H                |   109.00
   17 N                |  19 C                |  21 C                |   108.09
   17 N                |  19 C                |  26 C                |   113.96
   20 H                |  19 C                |  21 C                |   108.39
   20 H                |  19 C                |  26 C                |   105.98
   21 C                |  19 C                |  26 C                |   111.28
   19 C                |  21 C                |  22 H                |   108.75
   19 C                |  21 C                |  23 H                |   109.42
   19 C                |  21 C                |  24 S                |   111.06
   22 H                |  21 C                |  23 H                |   108.61
   22 H                |  21 C                |  24 S                |   109.58
   23 H                |  21 C                |  24 S                |   109.38
   21 C                |  24 S                |  25 H                |    97.07
   19 C                |  26 C                |  27 O                |   119.84
   19 C                |  26 C                |  28 N                |   120.07
   27 O                |  26 C                |  28 N                |   120.09
   26 C                |  28 N                |  29 H                |   118.31
   26 C                |  28 N                |  30 H                |   120.63
   29 H                |  28 N                |  30 H                |   121.05
 ------------------------------------------------------------------------------
                            number of included internuclear angles:         49
 ==============================================================================



  library name resolved from: environment
  library file name is: </opt/rit/el9/20230413/app/linux-rhel9-x86_64_v3/gcc-11.2.1/nwchem-7.2.0-oxtctbuhfuzyfaoziquq6bki22grib3g/share/nwchem/libraries/>
  


 Summary of "ao basis" -> "" (cartesian)
 ------------------------------------------------------------------------------
       Tag                 Description            Shells   Functions and Types
 ---------------- ------------------------------  ------  ---------------------
 *                        aug-cc-pvdz                 on all atoms 


                      Basis "ao basis" -> "ao basis" (cartesian)
                      -----
  H (Hydrogen)
  ------------
            Exponent  Coefficients 
       -------------- ---------------------------------------------------------
  1 S  1.30100000E+01  0.019685
  1 S  1.96200000E+00  0.137977
  1 S  4.44600000E-01  0.478148

  2 S  1.22000000E-01  1.000000

  3 S  2.97400000E-02  1.000000

  4 P  7.27000000E-01  1.000000

  5 P  1.41000000E-01  1.000000

  C (Carbon)
  ----------
            Exponent  Coefficients 
       -------------- ---------------------------------------------------------
  1 S  6.66500000E+03  0.000692
  1 S  1.00000000E+03  0.005329
  1 S  2.28000000E+02  0.027077
  1 S  6.47100000E+01  0.101718
  1 S  2.10600000E+01  0.274740
  1 S  7.49500000E+00  0.448564
  1 S  2.79700000E+00  0.285074
  1 S  5.21500000E-01  0.015204

  2 S  6.66500000E+03 -0.000146
  2 S  1.00000000E+03 -0.001154
  2 S  2.28000000E+02 -0.005725
  2 S  6.47100000E+01 -0.023312
  2 S  2.10600000E+01 -0.063955
  2 S  7.49500000E+00 -0.149981
  2 S  2.79700000E+00 -0.127262
  2 S  5.21500000E-01  0.544529

  3 S  1.59600000E-01  1.000000

  4 S  4.69000000E-02  1.000000

  5 P  9.43900000E+00  0.038109
  5 P  2.00200000E+00  0.209480
  5 P  5.45600000E-01  0.508557

  6 P  1.51700000E-01  1.000000

  7 P  4.04100000E-02  1.000000

  8 D  5.50000000E-01  1.000000

  9 D  1.51000000E-01  1.000000

  O (Oxygen)
  ----------
            Exponent  Coefficients 
       -------------- ---------------------------------------------------------
  1 S  1.17200000E+04  0.000710
  1 S  1.75900000E+03  0.005470
  1 S  4.00800000E+02  0.027837
  1 S  1.13700000E+02  0.104800
  1 S  3.70300000E+01  0.283062
  1 S  1.32700000E+01  0.448719
  1 S  5.02500000E+00  0.270952
  1 S  1.01300000E+00  0.015458

  2 S  1.17200000E+04 -0.000160
  2 S  1.75900000E+03 -0.001263
  2 S  4.00800000E+02 -0.006267
  2 S  1.13700000E+02 -0.025716
  2 S  3.70300000E+01 -0.070924
  2 S  1.32700000E+01 -0.165411
  2 S  5.02500000E+00 -0.116955
  2 S  1.01300000E+00  0.557368

  3 S  3.02300000E-01  1.000000

  4 S  7.89600000E-02  1.000000

  5 P  1.77000000E+01  0.043018
  5 P  3.85400000E+00  0.228913
  5 P  1.04600000E+00  0.508728

  6 P  2.75300000E-01  1.000000

  7 P  6.85600000E-02  1.000000

  8 D  1.18500000E+00  1.000000

  9 D  3.32000000E-01  1.000000

  N (Nitrogen)
  ------------
            Exponent  Coefficients 
       -------------- ---------------------------------------------------------
  1 S  9.04600000E+03  0.000700
  1 S  1.35700000E+03  0.005389
  1 S  3.09300000E+02  0.027406
  1 S  8.77300000E+01  0.103207
  1 S  2.85600000E+01  0.278723
  1 S  1.02100000E+01  0.448540
  1 S  3.83800000E+00  0.278238
  1 S  7.46600000E-01  0.015440

  2 S  9.04600000E+03 -0.000153
  2 S  1.35700000E+03 -0.001208
  2 S  3.09300000E+02 -0.005992
  2 S  8.77300000E+01 -0.024544
  2 S  2.85600000E+01 -0.067459
  2 S  1.02100000E+01 -0.158078
  2 S  3.83800000E+00 -0.121831
  2 S  7.46600000E-01  0.549003

  3 S  2.24800000E-01  1.000000

  4 S  6.12400000E-02  1.000000

  5 P  1.35500000E+01  0.039919
  5 P  2.91700000E+00  0.217169
  5 P  7.97300000E-01  0.510319

  6 P  2.18500000E-01  1.000000

  7 P  5.61100000E-02  1.000000

  8 D  8.17000000E-01  1.000000

  9 D  2.30000000E-01  1.000000

  S (Sulphur)
  -----------
            Exponent  Coefficients 
       -------------- ---------------------------------------------------------
  1 S  1.10800000E+05  0.000248
  1 S  1.66100000E+04  0.001920
  1 S  3.78100000E+03  0.009962
  1 S  1.07100000E+03  0.040298
  1 S  3.49800000E+02  0.128604
  1 S  1.26300000E+02  0.303480
  1 S  4.92600000E+01  0.421432
  1 S  2.01600000E+01  0.230781
  1 S  5.72000000E+00  0.017897
  1 S  2.18200000E+00 -0.002975
  1 S  4.32700000E-01  0.000850

  2 S  1.10800000E+05 -0.000069
  2 S  1.66100000E+04 -0.000528
  2 S  3.78100000E+03 -0.002797
  2 S  1.07100000E+03 -0.011265
  2 S  3.49800000E+02 -0.038883
  2 S  1.26300000E+02 -0.099503
  2 S  4.92600000E+01 -0.199740
  2 S  2.01600000E+01 -0.123360
  2 S  5.72000000E+00  0.513194
  2 S  2.18200000E+00  0.607120
  2 S  4.32700000E-01  0.039675

  3 S  1.10800000E+05  0.000020
  3 S  1.66100000E+04  0.000153
  3 S  3.78100000E+03  0.000810
  3 S  1.07100000E+03  0.003290
  3 S  3.49800000E+02  0.011297
  3 S  1.26300000E+02  0.029639
  3 S  4.92600000E+01  0.059985
  3 S  2.01600000E+01  0.041325
  3 S  5.72000000E+00 -0.207474
  3 S  2.18200000E+00 -0.392889
  3 S  4.32700000E-01  0.632840

  4 S  1.57000000E-01  1.000000

  5 S  5.07000000E-02  1.000000

  6 P  3.99700000E+02  0.004475
  6 P  9.41900000E+01  0.034171
  6 P  2.97500000E+01  0.144250
  6 P  1.07700000E+01  0.353928
  6 P  4.11900000E+00  0.459085
  6 P  1.62500000E+00  0.206383
  6 P  4.72600000E-01  0.010214

  7 P  3.99700000E+02 -0.001163
  7 P  9.41900000E+01 -0.008657
  7 P  2.97500000E+01 -0.039089
  7 P  1.07700000E+01 -0.093463
  7 P  4.11900000E+00 -0.147994
  7 P  1.62500000E+00  0.030190
  7 P  4.72600000E-01  0.561573

  8 P  1.40700000E-01  1.000000

  9 P  3.99000000E-02  1.000000

 10 D  4.79000000E-01  1.000000

 11 D  1.52000000E-01  1.000000



 Summary of "ao basis" -> "ao basis" (cartesian)
 ------------------------------------------------------------------------------
       Tag                 Description            Shells   Functions and Types
 ---------------- ------------------------------  ------  ---------------------
 H                        aug-cc-pvdz                5        9   3s2p
 C                        aug-cc-pvdz                9       25   4s3p2d
 O                        aug-cc-pvdz                9       25   4s3p2d
 N                        aug-cc-pvdz                9       25   4s3p2d
 S                        aug-cc-pvdz               11       29   5s4p2d


                                 NWChem SCF Module
                                 -----------------



  ao basis        = "ao basis"
  functions       =   514
  atoms           =    30
  closed shells   =    62
  open shells     =     0
  charge          =   0.00
  wavefunction    = RHF 
  input vectors   = atomic
  output vectors  = ./ALA_CYS_2.movecs
  use symmetry    = F
  symmetry adapt  = F


 Summary of "ao basis" -> "ao basis" (cartesian)
 ------------------------------------------------------------------------------
       Tag                 Description            Shells   Functions and Types
 ---------------- ------------------------------  ------  ---------------------
 H                        aug-cc-pvdz                5        9   3s2p
 C                        aug-cc-pvdz                9       25   4s3p2d
 O                        aug-cc-pvdz                9       25   4s3p2d
 N                        aug-cc-pvdz                9       25   4s3p2d
 S                        aug-cc-pvdz               11       29   5s4p2d



 Forming initial guess at       1.2s


 !! The overlap matrix has   3 vectors deemed linearly dependent with
    eigenvalues:
 4.61D-06 5.49D-06 8.21D-06


      Superposition of Atomic Density Guess
      -------------------------------------

 Sum of atomic energies:       -1093.51360735

      Non-variational initial energy
      ------------------------------

 Total energy =   -1102.827302
 1-e energy   =   -3901.127397
 2-e energy   =    1588.276642
 HOMO         =      -0.287983
 LUMO         =       0.012075


 Starting SCF solution at     211.8s



 ----------------------------------------------
         Quadratically convergent ROHF

 Convergence threshold     :          1.000E-04
 Maximum no. of iterations :           30
 Final Fock-matrix accuracy:          1.000E-10
 ----------------------------------------------


              iter       energy          gnorm     gmax       time
             ----- ------------------- --------- --------- --------
                 1    -1096.9448819175  2.39D+00  1.90D-01    405.4
                 2    -1097.2522698961  8.00D-01  3.85D-02    841.8
                 3    -1097.3098006556  6.70D-02  5.11D-03   1435.6
                 4    -1097.3104821506  4.32D-03  4.20D-04   2256.6
                 5    -1097.3104858794  8.81D-06  4.65D-07   3700.6


       Final RHF  results 
       ------------------ 

         Total SCF energy =  -1097.310485879394
      One-electron energy =  -3911.202691478551
      Two-electron energy =   1603.868751963021
 Nuclear repulsion energy =   1210.023453636136

        Time for solution =   3495.8s


             Final eigenvalues
             -----------------

              1      
    1  -91.9714
    2  -20.5531
    3  -20.5338
    4  -20.5082
    5  -15.6271
    6  -15.6072
    7  -15.5712
    8  -11.3819
    9  -11.3688
   10  -11.3453
   11  -11.3157
   12  -11.3058
   13  -11.2875
   14  -11.2623
   15  -11.2594
   16   -8.9733
   17   -6.6557
   18   -6.6543
   19   -6.6522
   20   -1.4186
   21   -1.3941
   22   -1.3702
   23   -1.2768
   24   -1.2553
   25   -1.1964
   26   -1.0935
   27   -1.0731
   28   -1.0139
   29   -0.9835
   30   -0.9078
   31   -0.8611
   32   -0.8368
   33   -0.8158
   34   -0.7824
   35   -0.7453
   36   -0.7272
   37   -0.7038
   38   -0.6946
   39   -0.6701
   40   -0.6505
   41   -0.6366
   42   -0.6166
   43   -0.6101
   44   -0.6013
   45   -0.5984
   46   -0.5950
   47   -0.5902
   48   -0.5658
   49   -0.5603
   50   -0.5543
   51   -0.5502
   52   -0.5425
   53   -0.5181
   54   -0.5095
   55   -0.4704
   56   -0.4556
   57   -0.4524
   58   -0.4369
   59   -0.4120
   60   -0.3924
   61   -0.3872
   62   -0.3719
   63    0.0181
   64    0.0313
   65    0.0354
   66    0.0424
   67    0.0502
   68    0.0511
   69    0.0581
   70    0.0609
   71    0.0659
   72    0.0715

                       ROHF Final Molecular Orbital Analysis
                       -------------------------------------

 Vector   20  Occ=2.000000D+00  E=-1.418571D+00
              MO Center= -8.4D-01, -1.6D+00,  1.1D+00, r^2= 1.3D+00
   Bfn.  Coefficient  Atom+Function         Bfn.  Coefficient  Atom+Function  
  ----- ------------  ---------------      ----- ------------  ---------------
    79      0.341751   6 O  s                80      0.342752   6 O  s         
    54      0.241417   5 C  s                12      0.183066   2 C  s         
   225      0.156324  15 C  s         

 Vector   21  Occ=2.000000D+00  E=-1.394107D+00
              MO Center=  1.9D+00, -4.3D-01, -5.8D-02, r^2= 1.7D+00
   Bfn.  Coefficient  Atom+Function         Bfn.  Coefficient  Atom+Function  
  ----- ------------  ---------------      ----- ------------  ---------------
   250      0.355566  16 O  s               249      0.335163  16 O  s         
   224      0.240396  15 C  s         

 Vector   22  Occ=2.000000D+00  E=-1.370243D+00
              MO Center=  8.6D-01,  2.8D+00,  1.1D+00, r^2= 1.3D+00
   Bfn.  Coefficient  Atom+Function         Bfn.  Coefficient  Atom+Function  
  ----- ------------  ---------------      ----- ------------  ---------------
   449      0.375994  27 O  s               448      0.348504  27 O  s         
   423      0.244448  26 C  s         

 Vector   23  Occ=2.000000D+00  E=-1.276850D+00
              MO Center= -1.9D-01, -1.9D+00,  7.9D-02, r^2= 2.5D+00
   Bfn.  Coefficient  Atom+Function         Bfn.  Coefficient  Atom+Function  
  ----- ------------  ---------------      ----- ------------  ---------------
   105      0.379494   7 N  s               104      0.321903   7 N  s         
    80     -0.211652   6 O  s               139     -0.202674   9 C  s         
    79     -0.175624   6 O  s               225      0.159880  15 C  s         
    59     -0.153980   5 C  pz        

 Vector   24  Occ=2.000000D+00  E=-1.255302D+00
              MO Center=  6.8D-01,  3.0D-02, -2.9D-01, r^2= 3.0D+00
   Bfn.  Coefficient  Atom+Function         Bfn.  Coefficient  Atom+Function  
  ----- ------------  ---------------      ----- ------------  ---------------
   275      0.356466  17 N  s               274      0.315071  17 N  s         
   250     -0.188806  16 O  s               309     -0.172219  19 C  s         
   249     -0.156517  16 O  s               227     -0.153578  15 C  px        

 Vector   25  Occ=2.000000D+00  E=-1.196388D+00
              MO Center=  4.1D-01,  1.7D+00,  1.6D+00, r^2= 1.6D+00
   Bfn.  Coefficient  Atom+Function         Bfn.  Coefficient  Atom+Function  
  ----- ------------  ---------------      ----- ------------  ---------------
   474      0.391871  28 N  s               473      0.368829  28 N  s         
   309     -0.247186  19 C  s               449     -0.203230  27 O  s         
   427     -0.175145  26 C  py              448     -0.170352  27 O  s         
   431     -0.161055  26 C  pz              506      0.161383  30 H  s         
   497      0.158992  29 H  s         

 Vector   26  Occ=2.000000D+00  E=-1.093466D+00
              MO Center=  5.6D-02,  3.7D-01, -7.0D-01, r^2= 6.8D+00
   Bfn.  Coefficient  Atom+Function         Bfn.  Coefficient  Atom+Function  
  ----- ------------  ---------------      ----- ------------  ---------------
   342      0.212429  21 C  s               386      0.167597  24 S  s         
   308      0.161767  19 C  s               309      0.162086  19 C  s         

 Vector   27  Occ=2.000000D+00  E=-1.073081D+00
              MO Center=  1.3D-02, -9.8D-01, -5.7D-01, r^2= 8.1D+00
   Bfn.  Coefficient  Atom+Function         Bfn.  Coefficient  Atom+Function  
  ----- ------------  ---------------      ----- ------------  ---------------
   138      0.194174   9 C  s               309      0.193067  19 C  s         
   172      0.183455  11 C  s                12     -0.167551   2 C  s         
   342      0.164034  21 C  s         

 Vector   28  Occ=2.000000D+00  E=-1.013868D+00
              MO Center= -1.5D+00, -2.4D+00,  2.3D-01, r^2= 4.8D+00
   Bfn.  Coefficient  Atom+Function         Bfn.  Coefficient  Atom+Function  
  ----- ------------  ---------------      ----- ------------  ---------------
    11      0.318063   2 C  s                57     -0.173646   5 C  px        
    55      0.164216   5 C  s               172      0.163663  11 C  s         

 Vector   29  Occ=2.000000D+00  E=-9.834628D-01
              MO Center= -3.1D-01,  1.4D+00, -7.5D-01, r^2= 5.2D+00
   Bfn.  Coefficient  Atom+Function         Bfn.  Coefficient  Atom+Function  
  ----- ------------  ---------------      ----- ------------  ---------------
   386      0.301886  24 S  s               308     -0.236262  19 C  s         
   387      0.178337  24 S  s               348     -0.171408  21 C  px        
   139      0.150411   9 C  s         

 Vector   30  Occ=2.000000D+00  E=-9.078191D-01
              MO Center=  8.7D-01, -1.8D+00, -6.8D-01, r^2= 6.0D+00
   Bfn.  Coefficient  Atom+Function         Bfn.  Coefficient  Atom+Function  
  ----- ------------  ---------------      ----- ------------  ---------------
   139      0.264967   9 C  s               145      0.237613   9 C  py        
   172     -0.237137  11 C  s               138      0.192100   9 C  s         
   173     -0.175740  11 C  s         

 Vector   31  Occ=2.000000D+00  E=-8.611449D-01
              MO Center= -2.7D-01,  1.8D+00, -6.6D-01, r^2= 5.3D+00
   Bfn.  Coefficient  Atom+Function         Bfn.  Coefficient  Atom+Function  
  ----- ------------  ---------------      ----- ------------  ---------------
   387      0.258319  24 S  s               316      0.235800  19 C  pz        
   342     -0.233433  21 C  s               309      0.226349  19 C  s         
   386      0.225473  24 S  s               343     -0.182457  21 C  s         
   375     -0.169663  23 H  s               431      0.161758  26 C  pz        
   313      0.150216  19 C  pz        

 Vector   32  Occ=2.000000D+00  E=-8.368389D-01
              MO Center= -3.5D-01, -1.8D+00,  7.7D-02, r^2= 4.6D+00
   Bfn.  Coefficient  Atom+Function         Bfn.  Coefficient  Atom+Function  
  ----- ------------  ---------------      ----- ------------  ---------------
   109      0.251007   7 N  pz              128     -0.218067   8 H  s         
    54      0.206654   5 C  s               139      0.207030   9 C  s         
   105     -0.198757   7 N  s                60      0.174256   5 C  px        
    12      0.169913   2 C  s                17      0.160369   2 C  px        
    80     -0.159378   6 O  s                72     -0.157188   5 C  dxx       

 Vector   33  Occ=2.000000D+00  E=-8.157933D-01
              MO Center=  5.3D-01, -4.2D-01, -3.2D-01, r^2= 4.1D+00
   Bfn.  Coefficient  Atom+Function         Bfn.  Coefficient  Atom+Function  
  ----- ------------  ---------------      ----- ------------  ---------------
   277      0.285120  17 N  px              298     -0.229019  18 H  s         
   225      0.220388  15 C  s               309      0.210102  19 C  s         
   231      0.178405  15 C  py              299     -0.177560  18 H  s         
   224      0.169631  15 C  s               128      0.165120   8 H  s         
   275     -0.165164  17 N  s               250     -0.164022  16 O  s         

 Vector   34  Occ=2.000000D+00  E=-7.823997D-01
              MO Center=  4.0D-01,  1.2D+00,  5.8D-01, r^2= 4.8D+00
   Bfn.  Coefficient  Atom+Function         Bfn.  Coefficient  Atom+Function  
  ----- ------------  ---------------      ----- ------------  ---------------
   431      0.257749  26 C  pz              478     -0.232002  28 N  pz        
   225     -0.228855  15 C  s               315      0.224241  19 C  py        
   316      0.209136  19 C  pz              423      0.195344  26 C  s         
   277     -0.176187  17 N  px              298      0.174422  18 H  s         
   497     -0.168556  29 H  s               309      0.166450  19 C  s         

 Vector   35  Occ=2.000000D+00  E=-7.453110D-01
              MO Center=  3.3D-01,  2.6D-01,  7.5D-01, r^2= 5.5D+00
   Bfn.  Coefficient  Atom+Function         Bfn.  Coefficient  Atom+Function  
  ----- ------------  ---------------      ----- ------------  ---------------
   477      0.264264  28 N  py              225      0.251888  15 C  s         
   506     -0.237478  30 H  s               424      0.219388  26 C  s         
   425     -0.214603  26 C  s               145     -0.202691   9 C  py        
   428      0.202270  26 C  pz              315     -0.166609  19 C  py        
   144     -0.157848   9 C  px               56      0.153127   5 C  s         

 Vector   36  Occ=2.000000D+00  E=-7.272209D-01
              MO Center= -3.5D-02, -1.1D+00,  2.4D-01, r^2= 7.1D+00
   Bfn.  Coefficient  Atom+Function         Bfn.  Coefficient  Atom+Function  
  ----- ------------  ---------------      ----- ------------  ---------------
   145      0.280398   9 C  py              144      0.242447   9 C  px        
   225     -0.237779  15 C  s               139      0.184806   9 C  s         
   128      0.180215   8 H  s               228     -0.169073  15 C  py        
    55     -0.163293   5 C  s               109     -0.162785   7 N  pz        
    17      0.152036   2 C  px              107     -0.150922   7 N  px        

 Vector   37  Occ=2.000000D+00  E=-7.037879D-01
              MO Center=  4.6D-01, -5.9D-01,  2.8D-01, r^2= 7.3D+00
   Bfn.  Coefficient  Atom+Function         Bfn.  Coefficient  Atom+Function  
  ----- ------------  ---------------      ----- ------------  ---------------
   162      0.175691  10 H  s               478     -0.169071  28 N  pz        
   497     -0.165996  29 H  s               139      0.155800   9 C  s         
   108     -0.153294   7 N  py              141      0.151054   9 C  px        

 Vector   38  Occ=2.000000D+00  E=-6.945929D-01
              MO Center= -7.5D-01, -1.0D+00,  9.0D-01, r^2= 6.3D+00
   Bfn.  Coefficient  Atom+Function         Bfn.  Coefficient  Atom+Function  
  ----- ------------  ---------------      ----- ------------  ---------------
    80      0.228623   6 O  s                82      0.212286   6 O  px        
    17     -0.193784   2 C  px               57      0.168668   5 C  px        
   477      0.164981  28 N  py               59     -0.163403   5 C  pz        
    14     -0.155314   2 C  px        

 Vector   39  Occ=2.000000D+00  E=-6.701455D-01
              MO Center=  4.8D-01,  1.2D-01,  3.4D-01, r^2= 8.4D+00
   Bfn.  Coefficient  Atom+Function         Bfn.  Coefficient  Atom+Function  
  ----- ------------  ---------------      ----- ------------  ---------------
   478      0.194906  28 N  pz              497      0.179862  29 H  s         
    56      0.172270   5 C  s               276     -0.165423  17 N  s         
   174     -0.154942  11 C  s               278     -0.152621  17 N  py        

 Vector   40  Occ=2.000000D+00  E=-6.505350D-01
              MO Center=  6.2D-01,  4.8D-01, -2.3D-01, r^2= 7.6D+00
   Bfn.  Coefficient  Atom+Function         Bfn.  Coefficient  Atom+Function  
  ----- ------------  ---------------      ----- ------------  ---------------
   252      0.240445  16 O  px              226      0.212254  15 C  s         
   311      0.212026  19 C  px              332      0.175957  20 H  s         
   250      0.172576  16 O  s               347     -0.168393  21 C  pz        
   140      0.153169   9 C  s         

 Vector   41  Occ=2.000000D+00  E=-6.366395D-01
              MO Center= -1.3D+00, -1.9D+00,  3.6D-01, r^2= 6.1D+00
   Bfn.  Coefficient  Atom+Function         Bfn.  Coefficient  Atom+Function  
  ----- ------------  ---------------      ----- ------------  ---------------
   139      0.294419   9 C  s                15      0.243010   2 C  py        
    35     -0.212629   3 H  s                 1      0.208768   1 H  s         
    58      0.164885   5 C  py               16     -0.158938   2 C  pz        

 Vector   42  Occ=2.000000D+00  E=-6.165798D-01
              MO Center=  2.8D-01, -2.5D-01, -8.8D-02, r^2= 8.5D+00
   Bfn.  Coefficient  Atom+Function         Bfn.  Coefficient  Atom+Function  
  ----- ------------  ---------------      ----- ------------  ---------------
   252      0.199151  16 O  px               84      0.172226   6 O  pz        
   347      0.162217  21 C  pz        

 Vector   43  Occ=2.000000D+00  E=-6.100760D-01
              MO Center=  2.3D-01,  1.2D+00,  2.2D-02, r^2= 9.3D+00
   Bfn.  Coefficient  Atom+Function         Bfn.  Coefficient  Atom+Function  
  ----- ------------  ---------------      ----- ------------  ---------------
   452     -0.261093  27 O  py              225      0.245280  15 C  s         
   346     -0.200443  21 C  py              139     -0.193123   9 C  s         
   145     -0.182800   9 C  py              366     -0.180313  22 H  s         
   427      0.178091  26 C  py              367     -0.170972  22 H  s         
   449     -0.161684  27 O  s         

 Vector   44  Occ=2.000000D+00  E=-6.012553D-01
              MO Center=  2.8D-01,  8.6D-02, -3.4D-01, r^2= 7.9D+00
   Bfn.  Coefficient  Atom+Function         Bfn.  Coefficient  Atom+Function  
  ----- ------------  ---------------      ----- ------------  ---------------
   278      0.171593  17 N  py              333     -0.165336  20 H  s         
   276      0.159671  17 N  s               279      0.157173  17 N  pz        
   312     -0.154275  19 C  py              284      0.150895  17 N  py        
   344     -0.151395  21 C  s         

 Vector   45  Occ=2.000000D+00  E=-5.983505D-01
              MO Center=  3.4D-01, -5.0D-01,  7.5D-02, r^2= 1.0D+01
   Bfn.  Coefficient  Atom+Function         Bfn.  Coefficient  Atom+Function  
  ----- ------------  ---------------      ----- ------------  ---------------
   176      0.200447  11 C  py              452     -0.187659  27 O  py        
   196     -0.172608  12 H  s                84     -0.154537   6 O  pz        

 Vector   46  Occ=2.000000D+00  E=-5.949506D-01
              MO Center=  5.1D-01,  4.2D-01, -5.9D-01, r^2= 7.9D+00
   Bfn.  Coefficient  Atom+Function         Bfn.  Coefficient  Atom+Function  
  ----- ------------  ---------------      ----- ------------  ---------------
   227      0.221796  15 C  px              252     -0.214748  16 O  px        
   346      0.213289  21 C  py              366      0.185858  22 H  s         
    12     -0.159715   2 C  s         

 Vector   47  Occ=2.000000D+00  E=-5.901888D-01
              MO Center= -1.0D+00, -2.1D+00,  1.6D-01, r^2= 9.0D+00
   Bfn.  Coefficient  Atom+Function         Bfn.  Coefficient  Atom+Function  
  ----- ------------  ---------------      ----- ------------  ---------------
    44      0.298575   4 H  s                16      0.257483   2 C  pz        
    45      0.248762   4 H  s               175      0.221427  11 C  px        
   214      0.205250  14 H  s               215      0.176019  14 H  s         
    15      0.169900   2 C  py        

 Vector   48  Occ=2.000000D+00  E=-5.657507D-01
              MO Center=  5.0D-01,  1.3D+00,  2.2D-01, r^2= 7.9D+00
   Bfn.  Coefficient  Atom+Function         Bfn.  Coefficient  Atom+Function  
  ----- ------------  ---------------      ----- ------------  ---------------
   451      0.229743  27 O  px              427     -0.207365  26 C  py        
   414     -0.176331  25 H  s               452      0.163754  27 O  py        
   454      0.157291  27 O  px              476      0.157658  28 N  px        
   284     -0.155726  17 N  py        

 Vector   49  Occ=2.000000D+00  E=-5.603101D-01
              MO Center= -4.8D-01, -2.4D+00, -2.0D-01, r^2= 6.4D+00
   Bfn.  Coefficient  Atom+Function         Bfn.  Coefficient  Atom+Function  
  ----- ------------  ---------------      ----- ------------  ---------------
   205      0.228639  13 H  s                15      0.224440   2 C  py        
    35     -0.208483   3 H  s               177     -0.189524  11 C  pz        
   206      0.187318  13 H  s               215     -0.183551  14 H  s         
   108     -0.181446   7 N  py              111     -0.166858   7 N  py        
     2      0.161020   1 H  s                 1      0.153355   1 H  s         

 Vector   50  Occ=2.000000D+00  E=-5.543429D-01
              MO Center=  3.7D-01, -2.4D+00, -3.8D-01, r^2= 7.3D+00
   Bfn.  Coefficient  Atom+Function         Bfn.  Coefficient  Atom+Function  
  ----- ------------  ---------------      ----- ------------  ---------------
   175      0.279122  11 C  px              214      0.258221  14 H  s         
   215      0.218891  14 H  s               197     -0.209664  12 H  s         
    12      0.197884   2 C  s                55     -0.197274   5 C  s         
   107      0.185737   7 N  px               44     -0.184148   4 H  s         
    16     -0.181525   2 C  pz               45     -0.155679   4 H  s         

 Vector   51  Occ=2.000000D+00  E=-5.501942D-01
              MO Center=  1.9D-01,  1.3D+00, -1.9D-01, r^2= 8.2D+00
   Bfn.  Coefficient  Atom+Function         Bfn.  Coefficient  Atom+Function  
  ----- ------------  ---------------      ----- ------------  ---------------
   343      0.216279  21 C  s               452      0.189199  27 O  py        
   375      0.183011  23 H  s               428     -0.179656  26 C  pz        
   347     -0.174425  21 C  pz              367     -0.166888  22 H  s         
   309     -0.161542  19 C  s               316      0.152322  19 C  pz        

 Vector   52  Occ=2.000000D+00  E=-5.424790D-01
              MO Center=  6.2D-01, -5.9D-01, -9.7D-02, r^2= 9.2D+00
   Bfn.  Coefficient  Atom+Function         Bfn.  Coefficient  Atom+Function  
  ----- ------------  ---------------      ----- ------------  ---------------
   176      0.205532  11 C  py              145     -0.173643   9 C  py        
   196     -0.173330  12 H  s               197     -0.166539  12 H  s         
   228      0.155025  15 C  py              142     -0.153467   9 C  py        
   253      0.153426  16 O  py        

 Vector   53  Occ=2.000000D+00  E=-5.180598D-01
              MO Center=  7.3D-01, -8.9D-01, -2.1D-01, r^2= 7.4D+00
   Bfn.  Coefficient  Atom+Function         Bfn.  Coefficient  Atom+Function  
  ----- ------------  ---------------      ----- ------------  ---------------
   143      0.257918   9 C  pz              177     -0.208280  11 C  pz        
   162      0.194404  10 H  s               254     -0.183904  16 O  pz        
   276     -0.182858  17 N  s               180     -0.159544  11 C  pz        
   285     -0.158967  17 N  pz              226     -0.157117  15 C  s         

 Vector   54  Occ=2.000000D+00  E=-5.095197D-01
              MO Center=  1.2D-01,  1.4D+00, -1.8D-01, r^2= 6.5D+00
   Bfn.  Coefficient  Atom+Function         Bfn.  Coefficient  Atom+Function  
  ----- ------------  ---------------      ----- ------------  ---------------
   311      0.267994  19 C  px              414     -0.210399  25 H  s         
   332      0.199563  20 H  s               425     -0.195559  26 C  s         
   451     -0.190078  27 O  px              344      0.182270  21 C  s         
   413     -0.176268  25 H  s               476     -0.174599  28 N  px        
   387      0.168146  24 S  s         

 Vector   55  Occ=2.000000D+00  E=-4.703768D-01
              MO Center= -1.1D+00,  1.6D+00, -9.4D-01, r^2= 4.3D+00
   Bfn.  Coefficient  Atom+Function         Bfn.  Coefficient  Atom+Function  
  ----- ------------  ---------------      ----- ------------  ---------------
   387      0.348051  24 S  s               344      0.326535  21 C  s         
   393     -0.261600  24 S  py              348      0.239749  21 C  px        
   392     -0.233088  24 S  px              345      0.221147  21 C  px        
   425     -0.217487  26 C  s               394      0.201874  24 S  pz        
   396     -0.190778  24 S  py        

 Vector   56  Occ=2.000000D+00  E=-4.556105D-01
              MO Center=  4.7D-01, -1.0D+00,  2.6D-01, r^2= 5.9D+00
   Bfn.  Coefficient  Atom+Function         Bfn.  Coefficient  Atom+Function  
  ----- ------------  ---------------      ----- ------------  ---------------
   253      0.323404  16 O  py              139      0.281450   9 C  s         
   256      0.256639  16 O  py              108      0.250803   7 N  py        
    83     -0.231697   6 O  py              111      0.223298   7 N  py        
    86     -0.180268   6 O  py              109     -0.176184   7 N  pz        
    84      0.165365   6 O  pz              112     -0.160252   7 N  pz        

 Vector   57  Occ=2.000000D+00  E=-4.523897D-01
              MO Center= -6.7D-01, -1.3D+00,  1.1D+00, r^2= 4.3D+00
   Bfn.  Coefficient  Atom+Function         Bfn.  Coefficient  Atom+Function  
  ----- ------------  ---------------      ----- ------------  ---------------
    82      0.481157   6 O  px               85      0.380980   6 O  px        
    13     -0.221029   2 C  s               276     -0.190276  17 N  s         
    14      0.182254   2 C  px               17      0.180124   2 C  px        
   105     -0.171894   7 N  s               254     -0.170391  16 O  pz        
   225      0.154190  15 C  s                63     -0.152706   5 C  px        

 Vector   58  Occ=2.000000D+00  E=-4.368772D-01
              MO Center=  1.0D+00,  7.6D-01,  4.4D-01, r^2= 6.7D+00
   Bfn.  Coefficient  Atom+Function         Bfn.  Coefficient  Atom+Function  
  ----- ------------  ---------------      ----- ------------  ---------------
   453      0.341996  27 O  pz              333     -0.292143  20 H  s         
   254     -0.282518  16 O  pz              456      0.269556  27 O  pz        
   279      0.226888  17 N  pz              257     -0.218212  16 O  pz        
   282      0.214787  17 N  pz               82     -0.199334   6 O  px        
   309      0.190041  19 C  s               253      0.165508  16 O  py        

 Vector   59  Occ=2.000000D+00  E=-4.119571D-01
              MO Center=  9.1D-01, -9.7D-01,  1.9D-01, r^2= 5.7D+00
   Bfn.  Coefficient  Atom+Function         Bfn.  Coefficient  Atom+Function  
  ----- ------------  ---------------      ----- ------------  ---------------
   253      0.360605  16 O  py              256      0.285168  16 O  py        
   108     -0.263094   7 N  py              111     -0.240592   7 N  py        
   145      0.236347   9 C  py              139      0.218253   9 C  s         
   106      0.184080   7 N  s               142      0.184652   9 C  py        
    83      0.170925   6 O  py              163     -0.171247  10 H  s         

 Vector   60  Occ=2.000000D+00  E=-3.924039D-01
              MO Center=  4.2D-01,  2.2D+00,  1.3D+00, r^2= 3.2D+00
   Bfn.  Coefficient  Atom+Function         Bfn.  Coefficient  Atom+Function  
  ----- ------------  ---------------      ----- ------------  ---------------
   451      0.380854  27 O  px              476     -0.376283  28 N  px        
   479     -0.327086  28 N  px              454      0.299859  27 O  px        
   139      0.155677   9 C  s         

 Vector   61  Occ=2.000000D+00  E=-3.872131D-01
              MO Center=  9.8D-01,  1.4D+00,  3.2D-01, r^2= 4.8D+00
   Bfn.  Coefficient  Atom+Function         Bfn.  Coefficient  Atom+Function  
  ----- ------------  ---------------      ----- ------------  ---------------
   453      0.366776  27 O  pz              279     -0.318575  17 N  pz        
   282     -0.301706  17 N  pz              456      0.286296  27 O  pz        
   254      0.230213  16 O  pz              276      0.217287  17 N  s         
   257      0.182078  16 O  pz              313      0.172284  19 C  pz        
   476     -0.155237  28 N  px        

 Vector   62  Occ=2.000000D+00  E=-3.718938D-01
              MO Center= -1.6D+00,  1.9D+00, -1.0D+00, r^2= 2.8D+00
   Bfn.  Coefficient  Atom+Function         Bfn.  Coefficient  Atom+Function  
  ----- ------------  ---------------      ----- ------------  ---------------
   394      0.413012  24 S  pz              397      0.396313  24 S  pz        
   393      0.304591  24 S  py              396      0.299031  24 S  py        
   367     -0.175418  22 H  s               376      0.174837  23 H  s         
   425     -0.173016  26 C  s         

 Vector   63  Occ=0.000000D+00  E= 1.810193D-02
              MO Center= -1.6D+00, -3.9D+00, -1.7D+00, r^2= 1.9D+01
   Bfn.  Coefficient  Atom+Function         Bfn.  Coefficient  Atom+Function  
  ----- ------------  ---------------      ----- ------------  ---------------
   226      2.826428  15 C  s               300      2.491729  18 H  s         
   234     -2.428729  15 C  py              425      2.231530  26 C  s         
    63     -2.199843   5 C  px              106     -2.174501   7 N  s         
     3     -1.664566   1 H  s               198     -1.615533  12 H  s         
   147     -1.512606   9 C  px               37     -1.459942   3 H  s         

 Vector   64  Occ=0.000000D+00  E= 3.126778D-02
              MO Center= -1.2D+00, -3.3D-01, -2.5D+00, r^2= 3.3D+01
   Bfn.  Coefficient  Atom+Function         Bfn.  Coefficient  Atom+Function  
  ----- ------------  ---------------      ----- ------------  ---------------
   425      4.839674  26 C  s               234      4.146480  15 C  py        
   300      3.966138  18 H  s               344     -3.894703  21 C  s         
   377     -2.868341  23 H  s               198      2.554598  12 H  s         
   147      2.534326   9 C  px              319     -2.489496  19 C  pz        
   207     -2.342965  13 H  s               415     -2.085576  25 H  s         

 Vector   65  Occ=0.000000D+00  E= 3.542551D-02
              MO Center= -1.7D+00, -2.5D+00, -9.0D-01, r^2= 3.3D+01
   Bfn.  Coefficient  Atom+Function         Bfn.  Coefficient  Atom+Function  
  ----- ------------  ---------------      ----- ------------  ---------------
    63      4.293800   5 C  px              106     -2.365636   7 N  s         
    12     -2.219409   2 C  s               149     -2.210610   9 C  pz        
   173      2.200437  11 C  s                 3      1.757884   1 H  s         
    46      1.728393   4 H  s               147      1.699840   9 C  px        
   206     -1.584995  13 H  s               198     -1.510344  12 H  s         

 Vector   66  Occ=0.000000D+00  E= 4.241506D-02
              MO Center= -2.5D-01, -1.6D+00, -7.1D-01, r^2= 3.7D+01
   Bfn.  Coefficient  Atom+Function         Bfn.  Coefficient  Atom+Function  
  ----- ------------  ---------------      ----- ------------  ---------------
   425      3.729726  26 C  s               164     -2.437381  10 H  s         
   130      2.266232   8 H  s                 3      1.925241   1 H  s         
   276      1.839264  17 N  s               415     -1.744231  25 H  s         
   198     -1.735260  12 H  s               207      1.640254  13 H  s         
    46     -1.594345   4 H  s               284     -1.574184  17 N  py        

 Vector   67  Occ=0.000000D+00  E= 5.022368D-02
              MO Center= -1.3D+00, -1.5D-01, -1.3D+00, r^2= 3.9D+01
   Bfn.  Coefficient  Atom+Function         Bfn.  Coefficient  Atom+Function  
  ----- ------------  ---------------      ----- ------------  ---------------
   106      3.726557   7 N  s               174      3.153442  11 C  s         
   198      2.775093  12 H  s               415      2.782843  25 H  s         
    56     -2.477712   5 C  s               234      2.431820  15 C  py        
   130      2.322934   8 H  s               226     -2.316868  15 C  s         
    46     -2.280736   4 H  s               207     -2.240582  13 H  s         

 Vector   68  Occ=0.000000D+00  E= 5.108225D-02
              MO Center= -8.1D-01, -1.3D+00, -1.1D+00, r^2= 3.9D+01
   Bfn.  Coefficient  Atom+Function         Bfn.  Coefficient  Atom+Function  
  ----- ------------  ---------------      ----- ------------  ---------------
   234     -3.674222  15 C  py               37      3.505645   3 H  s         
    56     -3.365606   5 C  s               147     -2.735820   9 C  px        
   174      2.503414  11 C  s                63     -2.424252   5 C  px        
     3     -2.325730   1 H  s                46     -2.314991   4 H  s         
   377      2.291482  23 H  s               276      1.959369  17 N  s         

 Vector   69  Occ=0.000000D+00  E= 5.807218D-02
              MO Center= -3.4D-02, -3.2D-01,  2.3D+00, r^2= 3.4D+01
   Bfn.  Coefficient  Atom+Function         Bfn.  Coefficient  Atom+Function  
  ----- ------------  ---------------      ----- ------------  ---------------
   475      3.625988  28 N  s               499      3.119601  29 H  s         
   226     -3.065179  15 C  s               130      2.948616   8 H  s         
   216     -2.830130  14 H  s                56     -2.533598   5 C  s         
   434     -2.454555  26 C  pz              106      2.046244   7 N  s         
   233      1.993427  15 C  px              140     -1.938057   9 C  s         

 Vector   70  Occ=0.000000D+00  E= 6.087735D-02
              MO Center= -1.6D-01, -2.4D+00,  3.7D-01, r^2= 3.4D+01
   Bfn.  Coefficient  Atom+Function         Bfn.  Coefficient  Atom+Function  
  ----- ------------  ---------------      ----- ------------  ---------------
   164      5.429535  10 H  s                13     -4.441526   2 C  s         
   226      4.365185  15 C  s                63     -3.793623   5 C  px        
     3      3.331280   1 H  s                46     -3.173489   4 H  s         
   149     -3.031739   9 C  pz              198     -2.723893  12 H  s         
   425     -2.718742  26 C  s               140      2.683506   9 C  s         

 Vector   71  Occ=0.000000D+00  E= 6.594274D-02
              MO Center=  6.7D-01,  1.1D+00, -8.7D-01, r^2= 3.7D+01
   Bfn.  Coefficient  Atom+Function         Bfn.  Coefficient  Atom+Function  
  ----- ------------  ---------------      ----- ------------  ---------------
   334      3.873901  20 H  s               368      3.723643  22 H  s         
   377     -3.362779  23 H  s               300     -2.730952  18 H  s         
   276     -2.682845  17 N  s               216      2.496584  14 H  s         
     3      2.478322   1 H  s                13     -2.326999   2 C  s         
   317     -2.329670  19 C  px              234     -2.242258  15 C  py        

 Vector   72  Occ=0.000000D+00  E= 7.146154D-02
              MO Center= -4.4D-01, -1.9D+00, -1.3D+00, r^2= 4.2D+01
   Bfn.  Coefficient  Atom+Function         Bfn.  Coefficient  Atom+Function  
  ----- ------------  ---------------      ----- ------------  ---------------
    56      5.787180   5 C  s               198      5.106559  12 H  s         
   344     -4.167412  21 C  s                37     -4.128080   3 H  s         
   147      3.421231   9 C  px              207     -3.328613  13 H  s         
    63      3.262368   5 C  px               46      3.066102   4 H  s         
   216     -2.747342  14 H  s               113      2.537699   7 N  px        

 Vector   73  Occ=0.000000D+00  E= 7.646857D-02
              MO Center= -3.3D-01,  5.0D-01, -9.7D-02, r^2= 4.2D+01
   Bfn.  Coefficient  Atom+Function         Bfn.  Coefficient  Atom+Function  
  ----- ------------  ---------------      ----- ------------  ---------------
   368      5.082519  22 H  s               377     -4.241739  23 H  s         
   164      4.178211  10 H  s               198     -3.858794  12 H  s         
   174     -3.777734  11 C  s               475     -3.365593  28 N  s         
   207      3.038404  13 H  s               149     -2.910108   9 C  pz        
   234     -2.890114  15 C  py              310      2.662329  19 C  s         

 Vector   74  Occ=0.000000D+00  E= 8.222437D-02
              MO Center=  6.8D-01,  1.2D+00, -1.3D+00, r^2= 3.6D+01
   Bfn.  Coefficient  Atom+Function         Bfn.  Coefficient  Atom+Function  
  ----- ------------  ---------------      ----- ------------  ---------------
   334      6.488148  20 H  s               226     -6.353429  15 C  s         
    56     -5.881469   5 C  s               300      5.181987  18 H  s         
   174      5.069838  11 C  s               317     -4.226741  19 C  px        
   368     -3.683440  22 H  s               140     -3.568460   9 C  s         
     3     -3.304316   1 H  s               276      3.257133  17 N  s         

 Vector   75  Occ=0.000000D+00  E= 8.469966D-02
              MO Center=  9.9D-01, -2.0D+00, -1.5D+00, r^2= 3.4D+01
   Bfn.  Coefficient  Atom+Function         Bfn.  Coefficient  Atom+Function  
  ----- ------------  ---------------      ----- ------------  ---------------
   216      6.453759  14 H  s               207     -5.360696  13 H  s         
   234      5.276510  15 C  py              130      5.161954   8 H  s         
   344     -4.502516  21 C  s               174      4.300218  11 C  s         
   334     -3.182498  20 H  s                 3     -2.986128   1 H  s         
   318      2.967680  19 C  py              181     -2.876416  11 C  px        

 Vector   76  Occ=0.000000D+00  E= 9.592401D-02
              MO Center= -1.0D+00, -3.7D-02, -8.1D-01, r^2= 2.9D+01
   Bfn.  Coefficient  Atom+Function         Bfn.  Coefficient  Atom+Function  
  ----- ------------  ---------------      ----- ------------  ---------------
   300     12.525834  18 H  s                56     -7.213336   5 C  s         
   174      6.002456  11 C  s               344      3.691899  21 C  s         
   226     -3.595299  15 C  s               388     -3.596197  24 S  s         
   130     -3.494132   8 H  s               149      3.377783   9 C  pz        
   368      3.326059  22 H  s               276      3.129825  17 N  s         

 Vector   77  Occ=0.000000D+00  E= 1.052770D-01
              MO Center= -5.7D-01, -9.7D-01,  1.6D+00, r^2= 3.1D+01
   Bfn.  Coefficient  Atom+Function         Bfn.  Coefficient  Atom+Function  
  ----- ------------  ---------------      ----- ------------  ---------------
   508      9.980252  30 H  s               234     -5.604530  15 C  py        
    56     -5.386374   5 C  s                63     -4.984238   5 C  px        
   318     -3.875658  19 C  py              164     -3.687062  10 H  s         
   300     -3.633156  18 H  s               147     -3.407844   9 C  px        
   149      3.283888   9 C  pz               64     -3.237042   5 C  py        

 Vector   78  Occ=0.000000D+00  E= 1.106684D-01
              MO Center= -1.6D+00,  6.0D-01, -1.3D+00, r^2= 2.5D+01
   Bfn.  Coefficient  Atom+Function         Bfn.  Coefficient  Atom+Function  
  ----- ------------  ---------------      ----- ------------  ---------------
   344     15.307240  21 C  s               300    -11.460153  18 H  s         
   425    -11.337307  26 C  s               377      5.622141  23 H  s         
    13      4.971136   2 C  s               388     -4.758278  24 S  s         
   317      4.626889  19 C  px              319      4.462906  19 C  pz        
   353      4.453906  21 C  pz              352     -4.018409  21 C  py        

 Vector   79  Occ=0.000000D+00  E= 1.192117D-01
              MO Center= -6.3D-01, -5.8D-01,  1.2D+00, r^2= 3.1D+01
   Bfn.  Coefficient  Atom+Function         Bfn.  Coefficient  Atom+Function  
  ----- ------------  ---------------      ----- ------------  ---------------
   508      7.371924  30 H  s               300      6.555790  18 H  s         
   147      5.503297   9 C  px              388     -4.821167  24 S  s         
   425      4.761210  26 C  s               319     -4.018049  19 C  pz        
   475     -3.846258  28 N  s               226     -3.720492  15 C  s         
   344     -3.700579  21 C  s               318      3.478869  19 C  py        

 Vector   80  Occ=0.000000D+00  E= 1.215078D-01
              MO Center=  1.0D+00, -2.6D-01, -9.6D-01, r^2= 2.9D+01
   Bfn.  Coefficient  Atom+Function         Bfn.  Coefficient  Atom+Function  
  ----- ------------  ---------------      ----- ------------  ---------------
   425     22.551358  26 C  s               174     11.702452  11 C  s         
   344    -10.341427  21 C  s               319     -9.179466  19 C  pz        
   140     -5.881422   9 C  s               284     -5.858013  17 N  py        
   149      5.092769   9 C  pz              147     -4.284156   9 C  px        
   434     -4.166270  26 C  pz              475     -3.900644  28 N  s         

 Vector   81  Occ=0.000000D+00  E= 1.248181D-01
              MO Center= -1.0D+00, -1.3D+00, -5.4D-01, r^2= 3.1D+01
   Bfn.  Coefficient  Atom+Function         Bfn.  Coefficient  Atom+Function  
  ----- ------------  ---------------      ----- ------------  ---------------
   226     18.701554  15 C  s                56     17.714954   5 C  s         
   106    -11.730400   7 N  s               174    -11.550937  11 C  s         
   310      8.229632  19 C  s               425      8.005227  26 C  s         
   140      7.778768   9 C  s               344     -7.583438  21 C  s         
    13     -7.155024   2 C  s               234     -6.202376  15 C  py        

 Vector   82  Occ=0.000000D+00  E= 1.347785D-01
              MO Center= -1.0D-01,  1.1D+00,  2.1D-01, r^2= 3.4D+01
   Bfn.  Coefficient  Atom+Function         Bfn.  Coefficient  Atom+Function  
  ----- ------------  ---------------      ----- ------------  ---------------
   425     20.784830  26 C  s               344    -13.868596  21 C  s         
    56      8.164841   5 C  s               475     -8.145687  28 N  s         
   508     -7.908438  30 H  s               433     -6.930685  26 C  py        
   234      6.781674  15 C  py              317     -6.798638  19 C  px        
   318      5.451545  19 C  py              434     -5.318363  26 C  pz        

 Vector   83  Occ=0.000000D+00  E= 1.355599D-01
              MO Center=  5.5D-01, -1.2D+00, -8.8D-01, r^2= 3.3D+01
   Bfn.  Coefficient  Atom+Function         Bfn.  Coefficient  Atom+Function  
  ----- ------------  ---------------      ----- ------------  ---------------
   174     17.124141  11 C  s               226    -15.184744  15 C  s         
   140    -12.176320   9 C  s               425     11.332816  26 C  s         
   276     10.623093  17 N  s                56     -8.620027   5 C  s         
   344     -8.505363  21 C  s               149      7.333873   9 C  pz        
   319     -7.060442  19 C  pz              234      6.847855  15 C  py        

 Vector   84  Occ=0.000000D+00  E= 1.415919D-01
              MO Center= -4.9D-01,  4.3D-01, -1.3D-01, r^2= 3.2D+01
   Bfn.  Coefficient  Atom+Function         Bfn.  Coefficient  Atom+Function  
  ----- ------------  ---------------      ----- ------------  ---------------
   234      7.679690  15 C  py              140      7.457069   9 C  s         
   226      7.374447  15 C  s                63     -6.588512   5 C  px        
   106      6.566626   7 N  s                13     -6.261570   2 C  s         
   425     -5.664041  26 C  s               174     -5.580426  11 C  s         
   318      5.052197  19 C  py              434      4.191883  26 C  pz        

 Vector   85  Occ=0.000000D+00  E= 1.454110D-01
              MO Center=  4.3D-02, -1.7D+00, -1.0D+00, r^2= 3.1D+01
   Bfn.  Coefficient  Atom+Function         Bfn.  Coefficient  Atom+Function  
  ----- ------------  ---------------      ----- ------------  ---------------
    63     13.038301   5 C  px              147      9.954369   9 C  px        
    13      9.580703   2 C  s               226     -7.274888  15 C  s         
   344      6.399404  21 C  s                 3      4.610238   1 H  s         
   140     -4.497603   9 C  s                20      4.395014   2 C  px        
   113      4.052461   7 N  px              284     -3.977634  17 N  py        

 Vector   86  Occ=0.000000D+00  E= 1.487122D-01
              MO Center=  3.3D-01, -1.1D+00, -4.0D-02, r^2= 2.5D+01
   Bfn.  Coefficient  Atom+Function         Bfn.  Coefficient  Atom+Function  
  ----- ------------  ---------------      ----- ------------  ---------------
   276      7.513199  17 N  s               148     -4.992705   9 C  py        
   234     -4.882902  15 C  py              319      4.330635  19 C  pz        
    64      4.163229   5 C  py              233      3.938949  15 C  px        
   140     -3.760456   9 C  s                56     -3.724666   5 C  s         
   284     -3.592895  17 N  py              164     -3.457252  10 H  s         

 Vector   87  Occ=0.000000D+00  E= 1.504517D-01
              MO Center= -7.6D-01, -1.4D+00,  4.3D-01, r^2= 2.2D+01
   Bfn.  Coefficient  Atom+Function         Bfn.  Coefficient  Atom+Function  
  ----- ------------  ---------------      ----- ------------  ---------------
   425      7.721219  26 C  s               226     -5.911705  15 C  s         
   508     -5.927974  30 H  s               233      4.955678  15 C  px        
    64      4.582152   5 C  py              140     -4.269740   9 C  s         
   234     -3.985934  15 C  py              147     -3.660432   9 C  px        
    13      3.395650   2 C  s                37     -3.299338   3 H  s         

 Vector   88  Occ=0.000000D+00  E= 1.529335D-01
              MO Center= -2.6D-01, -4.1D-01,  4.4D-01, r^2= 2.9D+01
   Bfn.  Coefficient  Atom+Function         Bfn.  Coefficient  Atom+Function  
  ----- ------------  ---------------      ----- ------------  ---------------
   234      8.988236  15 C  py              106     -7.810569   7 N  s         
   300     -6.720166  18 H  s                63      6.252035   5 C  px        
   226      6.194237  15 C  s                65     -5.296250   5 C  pz        
   475      5.131437  28 N  s               233     -4.939917  15 C  px        
   425     -4.748461  26 C  s               276     -4.622070  17 N  s         

 Vector   89  Occ=0.000000D+00  E= 1.573498D-01
              MO Center= -9.4D-01, -6.7D-01, -7.2D-01, r^2= 2.8D+01
   Bfn.  Coefficient  Atom+Function         Bfn.  Coefficient  Atom+Function  
  ----- ------------  ---------------      ----- ------------  ---------------
   234      5.799413  15 C  py              344     -5.711969  21 C  s         
   226      5.359081  15 C  s               425      5.284785  26 C  s         
    20     -5.223741   2 C  px              130      4.751562   8 H  s         
   318      4.707670  19 C  py               13     -4.419473   2 C  s         
   434     -3.901635  26 C  pz              351     -3.719082  21 C  px        

 Vector   90  Occ=0.000000D+00  E= 1.603472D-01
              MO Center= -4.3D-01, -1.2D+00,  5.9D-02, r^2= 3.1D+01
   Bfn.  Coefficient  Atom+Function         Bfn.  Coefficient  Atom+Function  
  ----- ------------  ---------------      ----- ------------  ---------------
   174      8.494018  11 C  s               148      5.942444   9 C  py        
   106      5.221986   7 N  s               226     -5.205833  15 C  s         
   149      4.375130   9 C  pz              183      3.873099  11 C  pz        
    13      3.667927   2 C  s                56     -3.620226   5 C  s         
    46     -3.429419   4 H  s               234      3.271534  15 C  py        

 Vector   91  Occ=0.000000D+00  E= 1.632799D-01
              MO Center= -3.8D-01, -6.3D-01, -5.8D-01, r^2= 2.7D+01
   Bfn.  Coefficient  Atom+Function         Bfn.  Coefficient  Atom+Function  
  ----- ------------  ---------------      ----- ------------  ---------------
   106      9.523364   7 N  s                63     -7.067756   5 C  px        
   174      6.757891  11 C  s               425      5.836245  26 C  s         
   130      4.725401   8 H  s                65      4.525672   5 C  pz        
     3     -4.354207   1 H  s               149      4.371354   9 C  pz        
    56     -3.990779   5 C  s               344     -3.464755  21 C  s         

 Vector   92  Occ=0.000000D+00  E= 1.649299D-01
[...]

 Vector  151  Occ=0.000000D+00  E= 4.307569D-01
              MO Center=  7.2D-01,  4.2D-01, -3.2D-01, r^2= 2.0D+01
   Bfn.  Coefficient  Atom+Function         Bfn.  Coefficient  Atom+Function  
  ----- ------------  ---------------      ----- ------------  ---------------
   475      7.604039  28 N  s               174      5.835069  11 C  s         
   343     -5.248354  21 C  s               215     -5.119472  14 H  s         
   434     -4.947075  26 C  pz              226      4.822053  15 C  s         
   234      4.739001  15 C  py              276     -4.644588  17 N  s         
   147     -4.486766   9 C  px              317      4.078899  19 C  px        

 Vector  152  Occ=0.000000D+00  E= 4.334791D-01
              MO Center= -2.0D-01, -1.2D+00,  1.8D-01, r^2= 2.1D+01
   Bfn.  Coefficient  Atom+Function         Bfn.  Coefficient  Atom+Function  
  ----- ------------  ---------------      ----- ------------  ---------------
   276    -12.773354  17 N  s               234     11.658695  15 C  py        
   140     10.493742   9 C  s               226      9.884022  15 C  s         
   425     -9.896665  26 C  s               174      7.787659  11 C  s         
    63     -7.280802   5 C  px               12      7.030085   2 C  s         
   475      5.952341  28 N  s                45     -5.686385   4 H  s         

 Vector  153  Occ=0.000000D+00  E= 4.358633D-01
              MO Center= -5.2D-01, -1.3D+00,  3.5D-01, r^2= 1.9D+01
   Bfn.  Coefficient  Atom+Function         Bfn.  Coefficient  Atom+Function  
  ----- ------------  ---------------      ----- ------------  ---------------
    13     14.496127   2 C  s               226    -10.876147  15 C  s         
    56      9.509823   5 C  s                63      9.133419   5 C  px        
   113      8.662465   7 N  px               65     -8.453015   5 C  pz        
   276      8.440142  17 N  s               140     -8.045728   9 C  s         
   106     -7.890441   7 N  s                36     -6.690291   3 H  s         

 Vector  154  Occ=0.000000D+00  E= 4.411349D-01
              MO Center=  2.6D-01, -8.2D-01, -4.6D-01, r^2= 1.7D+01
   Bfn.  Coefficient  Atom+Function         Bfn.  Coefficient  Atom+Function  
  ----- ------------  ---------------      ----- ------------  ---------------
   344     20.114599  21 C  s                56    -17.977940   5 C  s         
   174     13.856549  11 C  s                13     13.304119   2 C  s         
   226    -12.865103  15 C  s               234    -12.235951  15 C  py        
   425    -11.491006  26 C  s               140     -7.935980   9 C  s         
   276      7.383765  17 N  s               197     -6.884980  12 H  s         

 Vector  155  Occ=0.000000D+00  E= 4.469977D-01
              MO Center=  5.5D-02, -9.0D-01, -8.0D-01, r^2= 1.8D+01
   Bfn.  Coefficient  Atom+Function         Bfn.  Coefficient  Atom+Function  
  ----- ------------  ---------------      ----- ------------  ---------------
   276     15.312642  17 N  s               344    -14.059695  21 C  s         
   106     11.601892   7 N  s               226     -9.668095  15 C  s         
   300      7.877095  18 H  s               140     -5.719169   9 C  s         
   115     -5.670193   7 N  pz              318      5.632525  19 C  py        
   149      5.229756   9 C  pz              388      5.028383  24 S  s         

 Vector  156  Occ=0.000000D+00  E= 4.499659D-01
              MO Center= -3.2D-01, -5.8D-01, -3.4D-01, r^2= 1.9D+01
   Bfn.  Coefficient  Atom+Function         Bfn.  Coefficient  Atom+Function  
  ----- ------------  ---------------      ----- ------------  ---------------
   140      8.341950   9 C  s               226      7.898569  15 C  s         
     2      7.686428   1 H  s               147      7.497992   9 C  px        
   235     -7.298596  15 C  pz              234      6.959015  15 C  py        
   276     -6.885922  17 N  s               318      6.592914  19 C  py        
   113      6.477753   7 N  px              106      6.062344   7 N  s         

 Vector  157  Occ=0.000000D+00  E= 4.522111D-01
              MO Center=  2.5D-01,  4.3D-01,  3.0D-01, r^2= 1.7D+01
   Bfn.  Coefficient  Atom+Function         Bfn.  Coefficient  Atom+Function  
  ----- ------------  ---------------      ----- ------------  ---------------
   425     26.167519  26 C  s               174     15.055787  11 C  s         
   226    -13.071063  15 C  s               344    -12.366460  21 C  s         
   234     12.061495  15 C  py              475    -10.423480  28 N  s         
   106      9.476143   7 N  s               284     -9.450978  17 N  py        
   140     -8.717342   9 C  s               319     -8.752931  19 C  pz        

 Vector  158  Occ=0.000000D+00  E= 4.591952D-01
              MO Center= -6.0D-01, -6.9D-01,  1.3D-01, r^2= 1.9D+01
   Bfn.  Coefficient  Atom+Function         Bfn.  Coefficient  Atom+Function  
  ----- ------------  ---------------      ----- ------------  ---------------
   276     15.512698  17 N  s                13     14.327749   2 C  s         
   234     12.403287  15 C  py              226     -9.979340  15 C  s         
   140     -9.820583   9 C  s               147      9.362209   9 C  px        
   174      8.534663  11 C  s                63      8.135331   5 C  px        
   285      7.457583  17 N  pz              148      7.161483   9 C  py        

 Vector  159  Occ=0.000000D+00  E= 4.640605D-01
              MO Center=  2.3D-01, -9.9D-01,  2.0D-01, r^2= 2.0D+01
   Bfn.  Coefficient  Atom+Function         Bfn.  Coefficient  Atom+Function  
  ----- ------------  ---------------      ----- ------------  ---------------
   174     19.102562  11 C  s               276    -14.408782  17 N  s         
   475    -14.376700  28 N  s               234     10.462103  15 C  py        
    13      9.959924   2 C  s               226     -9.909941  15 C  s         
   206     -8.985627  13 H  s               425      8.894982  26 C  s         
   173      8.595467  11 C  s               344      8.516395  21 C  s         

 Vector  160  Occ=0.000000D+00  E= 4.691907D-01
              MO Center= -2.3D-01, -5.7D-01, -3.9D-01, r^2= 1.8D+01
   Bfn.  Coefficient  Atom+Function         Bfn.  Coefficient  Atom+Function  
  ----- ------------  ---------------      ----- ------------  ---------------
   276     11.348263  17 N  s               344    -11.123583  21 C  s         
   174     10.233927  11 C  s                56     -8.357145   5 C  s         
   319     -7.344889  19 C  pz              140     -5.771186   9 C  s         
   425      5.329195  26 C  s               206     -4.525993  13 H  s         
   182      4.197612  11 C  py                2      3.907342   1 H  s         

 Vector  161  Occ=0.000000D+00  E= 4.742751D-01
              MO Center=  1.7D-01, -4.4D-01, -2.4D-01, r^2= 1.8D+01
   Bfn.  Coefficient  Atom+Function         Bfn.  Coefficient  Atom+Function  
  ----- ------------  ---------------      ----- ------------  ---------------
   425     20.491336  26 C  s               174     14.637632  11 C  s         
   344    -13.542815  21 C  s               234    -13.319963  15 C  py        
   147    -11.955962   9 C  px              319     -9.882413  19 C  pz        
   113     -8.396102   7 N  px               13     -8.227606   2 C  s         
   139      8.096253   9 C  s                56     -5.651831   5 C  s         

 Vector  162  Occ=0.000000D+00  E= 4.773176D-01
              MO Center=  1.2D-01,  1.1D-01,  1.5D-01, r^2= 2.1D+01
   Bfn.  Coefficient  Atom+Function         Bfn.  Coefficient  Atom+Function  
  ----- ------------  ---------------      ----- ------------  ---------------
   226     22.350253  15 C  s               344    -22.074058  21 C  s         
    56     19.987327   5 C  s               174    -19.108882  11 C  s         
    13    -17.842881   2 C  s               234    -14.384632  15 C  py        
   106    -14.083497   7 N  s               425      9.899325  26 C  s         
   319     -9.600197  19 C  pz              276     -9.355422  17 N  s         

 Vector  163  Occ=0.000000D+00  E= 4.840551D-01
              MO Center= -7.6D-02,  1.1D-01, -4.1D-01, r^2= 1.8D+01
   Bfn.  Coefficient  Atom+Function         Bfn.  Coefficient  Atom+Function  
  ----- ------------  ---------------      ----- ------------  ---------------
   174     20.490842  11 C  s               276     17.001516  17 N  s         
   226    -16.578879  15 C  s               344    -14.179407  21 C  s         
   140    -13.730632   9 C  s                13     11.365620   2 C  s         
   234     11.283086  15 C  py              310     -8.779863  19 C  s         
    63      8.401531   5 C  px              367      8.104232  22 H  s         

 Vector  164  Occ=0.000000D+00  E= 4.849371D-01
              MO Center= -5.9D-01, -9.9D-01, -5.0D-01, r^2= 1.8D+01
   Bfn.  Coefficient  Atom+Function         Bfn.  Coefficient  Atom+Function  
  ----- ------------  ---------------      ----- ------------  ---------------
   344     17.040479  21 C  s               425    -12.824055  26 C  s         
   113     -9.270587   7 N  px               12      9.081194   2 C  s         
   173     -7.584361  11 C  s                36     -6.588883   3 H  s         
   475      6.352581  28 N  s                56     -6.259446   5 C  s         
   197      5.867603  12 H  s               388     -5.595662  24 S  s         

 Vector  165  Occ=0.000000D+00  E= 4.895411D-01
              MO Center=  5.0D-01, -1.8D-01, -6.1D-01, r^2= 1.9D+01
   Bfn.  Coefficient  Atom+Function         Bfn.  Coefficient  Atom+Function  
  ----- ------------  ---------------      ----- ------------  ---------------
   344      8.702914  21 C  s               376     -8.730944  23 H  s         
   343      7.158000  21 C  s                12      5.889411   2 C  s         
   319      5.857477  19 C  pz              251     -5.694008  16 O  s         
   174     -5.604468  11 C  s               140      5.389296   9 C  s         
   226      5.081001  15 C  s               206      4.919006  13 H  s         

 Vector  166  Occ=0.000000D+00  E= 4.923313D-01
              MO Center=  4.8D-02, -5.6D-01,  8.1D-02, r^2= 1.6D+01
   Bfn.  Coefficient  Atom+Function         Bfn.  Coefficient  Atom+Function  
  ----- ------------  ---------------      ----- ------------  ---------------
   174     12.701061  11 C  s               300     -9.371372  18 H  s         
   226     -8.927748  15 C  s                13      7.708609   2 C  s         
   147     -7.315366   9 C  px              173      7.204559  11 C  s         
   425      7.155176  26 C  s               140     -6.438475   9 C  s         
   319     -6.039382  19 C  pz               56     -5.529031   5 C  s         

 Vector  167  Occ=0.000000D+00  E= 4.997619D-01
              MO Center= -5.1D-02, -4.3D-01, -2.6D-02, r^2= 1.8D+01
   Bfn.  Coefficient  Atom+Function         Bfn.  Coefficient  Atom+Function  
  ----- ------------  ---------------      ----- ------------  ---------------
   174     21.905920  11 C  s                56    -19.650811   5 C  s         
   234     15.677950  15 C  py              226    -13.439228  15 C  s         
   106     10.681550   7 N  s               425    -10.250955  26 C  s         
   149     10.107447   9 C  pz               13      9.100472   2 C  s         
   310     -8.246839  19 C  s               173      6.834961  11 C  s         

 Vector  168  Occ=0.000000D+00  E= 5.061856D-01
              MO Center=  1.6D-01,  1.2D-01, -7.5D-01, r^2= 1.9D+01
   Bfn.  Coefficient  Atom+Function         Bfn.  Coefficient  Atom+Function  
  ----- ------------  ---------------      ----- ------------  ---------------
   344     30.860289  21 C  s               425    -21.553895  26 C  s         
   318    -12.739292  19 C  py              174     -9.456343  11 C  s         
   319      9.482024  19 C  pz              106     -8.592732   7 N  s         
   276     -8.595479  17 N  s                13      7.677711   2 C  s         
   367     -7.549595  22 H  s               149     -7.400581   9 C  pz        


 center of mass
 --------------
 x =   0.03197121 y =   0.08473226 z =   0.04428374

 moments of inertia (a.u.)
 ------------------
        4458.731693538958           0.000000000001          -0.000000000000
           0.000000000001        2778.528229582222          -0.000000000000
          -0.000000000000          -0.000000000000        5318.618623087021

  Mulliken analysis of the total density
  --------------------------------------

    Atom       Charge   Shell Charges
 -----------   ------   -------------------------------------------------------
    1 H    1     0.85   0.76  0.11  0.01  0.03 -0.07
    2 C    6     6.38   2.01  0.66  0.29  0.18  2.07  1.02 -0.01  0.06  0.11
    3 H    1     0.83   0.76  0.09  0.01  0.03 -0.06
    4 H    1     0.95   0.76  0.21  0.01  0.03 -0.06
    5 C    6     5.19   2.01  0.68  0.10 -0.01  1.90  0.37 -0.07  0.24 -0.02
    6 O    8     8.78   2.01  0.82  0.99  0.16  2.80  1.86  0.15  0.02 -0.01
    7 N    7     7.53   2.01  0.72  0.80 -0.15  2.45  1.44  0.15  0.05  0.03
    8 H    1     0.96   0.77  0.21 -0.03  0.05 -0.04
    9 C    6     6.41   2.01  0.66  0.09  0.07  1.99  1.34 -0.01  0.14  0.13
   10 H    1     1.10   0.78  0.25  0.02  0.03  0.02
   11 C    6     5.64   2.01  0.66  0.24  0.07  2.04  0.60 -0.05  0.07 -0.00
   12 H    1     1.00   0.77  0.28  0.01  0.03 -0.08
   13 H    1     0.94   0.77  0.18  0.03  0.03 -0.08
   14 H    1     0.95   0.76  0.23 -0.01  0.03 -0.07
   15 C    6     4.76   2.01  0.68  0.07 -0.04  1.89  0.09  0.09  0.24 -0.25
   16 O    8     8.82   2.01  0.82  1.04  0.19  2.78  1.84  0.13  0.01 -0.01
   17 N    7     7.39   2.01  0.72  0.78 -0.12  2.46  1.40  0.08  0.06  0.02
   18 H    1     0.92   0.76  0.29 -0.06  0.06 -0.12
   19 C    6     6.34   2.01  0.66  0.09 -0.05  1.99  1.35  0.00  0.14  0.15
   20 H    1     1.03   0.77  0.25 -0.01  0.03 -0.01
   21 C    6     5.91   2.01  0.66  0.19 -0.10  1.99  0.94  0.07  0.10  0.06
   22 H    1     1.11   0.76  0.36 -0.01  0.03 -0.03
   23 H    1     1.05   0.77  0.26  0.01  0.03 -0.02
   24 S   16    15.46   2.00  2.03  0.86  0.70  0.02  6.00  2.32  1.52  0.10  0.10 -0.19
   25 H    1     1.27   0.71  0.50 -0.01  0.03  0.04
   26 C    6     4.53   2.01  0.68  0.07 -0.03  1.89 -0.19  0.01  0.24 -0.13
   27 O    8     8.84   2.01  0.82  1.04  0.19  2.79  1.84  0.15  0.01 -0.01
   28 N    7     7.16   2.01  0.72  0.81 -0.20  2.46  1.24  0.11  0.04 -0.02
   29 H    1     1.03   0.76  0.25 -0.01  0.05 -0.02
   30 H    1     0.88   0.73  0.24 -0.01  0.06 -0.14

       Multipole analysis of the density wrt the origin
       ------------------------------------------------

     L   x y z        total         open         nuclear
     -   - - -        -----         ----         -------
     0   0 0 0      0.000000      0.000000    124.000000

     1   1 0 0     -1.895949      0.000000     -0.000000
     1   0 1 0     -2.499630      0.000000     -0.000000
     1   0 0 1     -1.769068      0.000000      0.000000

     2   2 0 0    -78.337520      0.000000   1001.621328
     2   1 1 0     -1.977715      0.000000      0.746288
     2   1 0 1     -0.855352      0.000000    -12.990156
     2   0 2 0    -70.726722      0.000000   1926.192416
     2   0 1 1     -3.728140      0.000000      2.086303
     2   0 0 2    -70.468207      0.000000    543.161227


 Task  times  cpu:     3706.3s     wall:     3767.0s


                                NWChem Input Module
                                -------------------


 Summary of allocated global arrays
-----------------------------------
  No active global arrays


MA_summarize_allocated_blocks: starting scan ...
MA_summarize_allocated_blocks: scan completed: 0 heap blocks, 0 stack blocks
MA usage statistics:

	allocation statistics:
					      heap	     stack
					      ----	     -----
	current number of blocks	         0	         0
	maximum number of blocks	        16	        14
	current total bytes		         0	         0
	maximum total bytes		    118744	  31125016
	maximum total K-bytes		       119	     31126
	maximum total M-bytes		         1	        32


                                     CITATION
                                     --------
                Please cite the following reference when publishing
                           results obtained with NWChem:

          E. Apra, E. J. Bylaska, W. A. de Jong, N. Govind, K. Kowalski,
       T. P. Straatsma, M. Valiev, H. J. J. van Dam, Y. Alexeev, J. Anchell,
       V. Anisimov, F. W. Aquino, R. Atta-Fynn, J. Autschbach, N. P. Bauman,
     J. C. Becca, D. E. Bernholdt, K. Bhaskaran-Nair, S. Bogatko, P. Borowski,
         J. Boschen, J. Brabec, A. Bruner, E. Cauet, Y. Chen, G. N. Chuev,
      C. J. Cramer, J. Daily, M. J. O. Deegan, T. H. Dunning Jr., M. Dupuis,
   K. G. Dyall, G. I. Fann, S. A. Fischer, A. Fonari, H. Fruchtl, L. Gagliardi,
      J. Garza, N. Gawande, S. Ghosh, K. Glaesemann, A. W. Gotz, J. Hammond,
       V. Helms, E. D. Hermes, K. Hirao, S. Hirata, M. Jacquelin, L. Jensen,
   B. G. Johnson, H. Jonsson, R. A. Kendall, M. Klemm, R. Kobayashi, V. Konkov,
      S. Krishnamoorthy, M. Krishnan, Z. Lin, R. D. Lins, R. J. Littlefield,
      A. J. Logsdail, K. Lopata, W. Ma, A. V. Marenich, J. Martin del Campo,
   D. Mejia-Rodriguez, J. E. Moore, J. M. Mullin, T. Nakajima, D. R. Nascimento,
    J. A. Nichols, P. J. Nichols, J. Nieplocha, A. Otero-de-la-Roza, B. Palmer,
    A. Panyala, T. Pirojsirikul, B. Peng, R. Peverati, J. Pittner, L. Pollack,
   R. M. Richard, P. Sadayappan, G. C. Schatz, W. A. Shelton, D. W. Silverstein,
   D. M. A. Smith, T. A. Soares, D. Song, M. Swart, H. L. Taylor, G. S. Thomas,
            V. Tipparaju, D. G. Truhlar, K. Tsemekhman, T. Van Voorhis,
      A. Vazquez-Mayagoitia, P. Verma, O. Villa, A. Vishnu, K. D. Vogiatzis,
        D. Wang, J. H. Weare, M. J. Williamson, T. L. Windus, K. Wolinski,
        A. T. Wong, Q. Wu, C. Yang, Q. Yu, M. Zacharias, Z. Zhang, Y. Zhao,
                                and R. J. Harrison
                        "NWChem: Past, present, and future
                         J. Chem. Phys. 152, 184102 (2020)
                               doi:10.1063/5.0004997

                                      AUTHORS
                                      -------
  E. Apra, E. J. Bylaska, N. Govind, K. Kowalski, M. Valiev, D. Mejia-Rodriguez,
       A. Kunitsa, N. P. Bauman, A. Panyala, W. A. de Jong, T. P. Straatsma,
   H. J. J. van Dam, D. Wang, T. L. Windus, J. Hammond, J. Autschbach, A. Woods,
    K. Bhaskaran-Nair, J. Brabec, K. Lopata, S. A. Fischer, S. Krishnamoorthy,
     M. Jacquelin, W. Ma, M. Klemm, O. Villa, Y. Chen, V. Anisimov, F. Aquino,
     S. Hirata, M. T. Hackler, E. Hermes, L. Jensen, J. E. Moore, J. C. Becca,
      V. Konjkov, T. Risthaus, M. Malagoli, A. Marenich, A. Otero-de-la-Roza,
        J. Mullin, P. Nichols, R. Peverati, J. Pittner, Y. Zhao, P.-D. Fan,
        A. Fonari, M. J. Williamson, R. J. Harrison, J. R. Rehr, M. Dupuis,
     D. Silverstein, D. M. A. Smith, J. Nieplocha, V. Tipparaju, M. Krishnan,
     B. E. Van Kuiken, A. Vazquez-Mayagoitia, M. Swart, Q. Wu, T. Van Voorhis,
     A. A. Auer, M. Nooijen, L. D. Crosby, E. Brown, G. Cisneros, G. I. Fann,
   H. Fruchtl, J. Garza, K. Hirao, R. A. Kendall, J. A. Nichols, K. Tsemekhman,
    K. Wolinski, J. Anchell, D. E. Bernholdt, P. Borowski, T. Clark, D. Clerc,
   H. Dachsel, M. J. O. Deegan, K. Dyall, D. Elwood, E. Glendening, M. Gutowski,
   A. C. Hess, J. Jaffe, B. G. Johnson, J. Ju, R. Kobayashi, R. Kutteh, Z. Lin,
   R. Littlefield, X. Long, B. Meng, T. Nakajima, S. Niu, L. Pollack, M. Rosing,
   K. Glaesemann, G. Sandrone, M. Stave, H. Taylor, G. Thomas, J. H. van Lenthe,
                               A. T. Wong, Z. Zhang.

 Total times  cpu:     3706.4s     wall:     3767.6s
