export TMOUT=5400
export TMPDIR=/tmp
export PTMPDIR=/tmp/ptmp
 argument  1 = ALA_HIS_5.nw
                                         
                                         


             Northwest Computational Chemistry Package (NWChem) 7.2.0
             --------------------------------------------------------


                    Environmental Molecular Sciences Laboratory
                       Pacific Northwest National Laboratory
                                Richland, WA 99352

                              Copyright (c) 1994-2022
                       Pacific Northwest National Laboratory
                            Battelle Memorial Institute

             NWChem is an open-source computational chemistry package
                        distributed under the terms of the
                      Educational Community License (ECL) 2.0
             A copy of the license is included with this distribution
                              in the LICENSE.TXT file

                                  ACKNOWLEDGMENT
                                  --------------

            This software and its documentation were developed at the
            EMSL at Pacific Northwest National Laboratory, a multiprogram
            national laboratory, operated for the U.S. Department of Energy
            by Battelle under Contract Number DE-AC05-76RL01830. Support
            for this work was provided by the Department of Energy Office
            of Biological and Environmental Research, Office of Basic
            Energy Sciences, and the Office of Advanced Scientific Computing.


           Job information
           ---------------

    hostname        = nova18-23
    program         = /opt/rit/el9/20230413/app/linux-rhel9-x86_64_v3/gcc-11.2.1/nwchem-7.2.0-oxtctbuhfuzyfaoziquq6bki22grib3g/bin/nwchem
    date            = Fri Jun 27 05:05:49 2025

    compiled        = Wed_May_17_23:46:39_2023
    source          = /tmp/root/spack-stage/spack-stage-nwchem-7.2.0-oxtctbuhfuzyfaoziquq6bki22grib3g/spack-src
    nwchem branch   = 7.2.0
    nwchem revision = d0d141fd
    ga revision     = 5.8.0
    use scalapack   = T
    input           = ALA_HIS_5.nw
    prefix          = ALA_HIS_5.
    data base       = ./ALA_HIS_5.db
    status          = startup
    nproc           =        8
    time left       =     -1s



           Memory information
           ------------------

    heap     =   26214394 doubles =    200.0 Mbytes
    stack    =   26214399 doubles =    200.0 Mbytes
    global   =   52428800 doubles =    400.0 Mbytes (distinct from heap & stack)
    total    =  104857593 doubles =    800.0 Mbytes
    verify   = yes
    hardfail = no 


           Directory information
           ---------------------

  0 permanent = .
  0 scratch   = .




                                NWChem Input Module
                                -------------------



 Scaling coordinates for geometry "geometry" by  1.889725989
 (inverse scale =  0.529177249)

 C1  symmetry detected

          ------
          auto-z
          ------
  no constraints, skipping    0.0000000000000000     
  no constraints, skipping    0.0000000000000000     


                             Geometry "geometry" -> ""
                             -------------------------

 Output coordinates in angstroms (scale by  1.889725989 to convert to a.u.)

  No.       Tag          Charge          X              Y              Z
 ---- ---------------- ---------- -------------- -------------- --------------
    1 H                    1.0000     0.48437063    -5.38276451    -0.31070979
    2 C                    6.0000    -0.17309490    -4.63410694    -0.74876448
    3 H                    1.0000    -1.20082672    -4.99435469    -0.72729676
    4 H                    1.0000     0.12276716    -4.43565927    -1.77704420
    5 C                    6.0000    -0.08168731    -3.35659069     0.05201194
    6 O                    8.0000    -1.08302850    -2.90021027     0.59207002
    7 N                    7.0000     1.12208448    -2.79117702     0.12363489
    8 H                    1.0000     1.87209323    -3.21461317    -0.39696352
    9 C                    6.0000     1.39276320    -1.48657954     0.73224350
   10 H                    1.0000     0.62812836    -1.28590276     1.48545821
   11 C                    6.0000     2.75147705    -1.54818190     1.44090479
   12 H                    1.0000     2.74616221    -2.34609114     2.18391596
   13 H                    1.0000     3.54246444    -1.73588158     0.71388431
   14 H                    1.0000     2.94930179    -0.59982381     1.94280449
   15 C                    6.0000     1.34038681    -0.34478497    -0.30382160
   16 O                    8.0000     1.60763350    -0.55494801    -1.48619366
   17 N                    7.0000     0.99996858     0.86513383     0.14931846
   18 H                    1.0000     0.77434772     0.95312079     1.12731515
   19 C                    6.0000     0.79039892     2.05424222    -0.69817655
   20 H                    1.0000     1.58986414     2.11909306    -1.43862691
   21 C                    6.0000    -0.55671188     1.93748206    -1.44773014
   22 H                    1.0000    -0.92274843     2.92989171    -1.71315495
   23 H                    1.0000    -0.37995042     1.39620595    -2.37797020
   24 C                    6.0000    -1.62597540     1.19741459    -0.67791350
   25 N                    7.0000    -2.26233596     1.64696636     0.48252713
   26 C                    6.0000    -2.94621059     0.59394957     0.95678983
   27 H                    1.0000    -3.52280329     0.59777619     1.87229801
   28 N                    7.0000    -2.75220132    -0.48296802     0.17656555
   29 H                    1.0000    -3.01635881    -1.43426125     0.40433519
   30 C                    6.0000    -1.92848126    -0.11841445    -0.86160108
   31 H                    1.0000    -1.49842028    -0.77155673    -1.60922045
   32 C                    6.0000     0.85224603     3.34970587     0.12054615
   33 O                    8.0000     1.67859874     4.21220943    -0.14376011
   34 N                    7.0000     0.02913913     3.49326340     1.14939905
   35 H                    1.0000     0.07311484     4.34489904     1.68178225
   36 H                    1.0000    -0.71438491     2.82016818     1.28521450

      Atomic Mass 
      ----------- 

      H                  1.007825
      C                 12.000000
      O                 15.994910
      N                 14.003070


 Effective nuclear repulsion energy (a.u.)    1535.1769034940

            Nuclear Dipole moment (a.u.) 
            ----------------------------
        X                 Y               Z
 ---------------- ---------------- ----------------
    -0.0000000000    -0.0000000000    -0.0000000000



                                Z-matrix (autoz)
                                -------- 

 Units are Angstrom for bonds and degrees for angles

      Type          Name      I     J     K     L     M      Value
      ----------- --------  ----- ----- ----- ----- ----- ----------
    1 Stretch                  1     2                       1.08841
    2 Stretch                  2     3                       1.08925
    3 Stretch                  2     4                       1.08824
    4 Stretch                  2     5                       1.51051
    5 Stretch                  5     6                       1.22582
    6 Stretch                  5     7                       1.33187
    7 Stretch                  7     8                       1.00640
    8 Stretch                  7     9                       1.46480
    9 Stretch                  9    10                       1.09191
   10 Stretch                  9    11                       1.53366
   11 Stretch                  9    15                       1.54268
   12 Stretch                 11    12                       1.09030
   13 Stretch                 11    13                       1.09062
   14 Stretch                 11    14                       1.09106
   15 Stretch                 15    16                       1.23028
   16 Stretch                 15    17                       1.33609
   17 Stretch                 17    18                       1.00753
   18 Stretch                 17    19                       1.47518
   19 Stretch                 19    20                       1.09161
   20 Stretch                 19    21                       1.54602
   21 Stretch                 19    32                       1.53374
   22 Stretch                 21    22                       1.09055
   23 Stretch                 21    23                       1.09067
   24 Stretch                 21    24                       1.51117
   25 Stretch                 24    25                       1.39774
   26 Stretch                 24    30                       1.36259
   27 Stretch                 25    26                       1.34218
   28 Stretch                 26    27                       1.08196
   29 Stretch                 26    28                       1.34393
   30 Stretch                 28    29                       1.01322
   31 Stretch                 28    30                       1.37448
   32 Stretch                 30    31                       1.08189
   33 Stretch                 32    33                       1.22337
   34 Stretch                 32    34                       1.32539
   35 Stretch                 34    35                       1.00531
   36 Stretch                 34    36                       1.01209
   37 Bend                     1     2     3               109.54334
   38 Bend                     1     2     4               109.96832
   39 Bend                     1     2     5               109.37962
   40 Bend                     2     5     6               119.93437
   41 Bend                     2     5     7               116.24719
   42 Bend                     3     2     4               109.59983
   43 Bend                     3     2     5               109.04815
   44 Bend                     4     2     5               109.28363
   45 Bend                     5     7     8               117.84806
   46 Bend                     5     7     9               124.57282
   47 Bend                     6     5     7               123.81833
   48 Bend                     7     9    10               108.71686
   49 Bend                     7     9    11               108.65822
   50 Bend                     7     9    15               111.95459
   51 Bend                     8     7     9               116.86847
   52 Bend                     9    11    12               109.87491
   53 Bend                     9    11    13               109.96363
   54 Bend                     9    11    14               109.77188
   55 Bend                     9    15    16               120.77296
   56 Bend                     9    15    17               116.81549
   57 Bend                    10     9    11               108.00084
   58 Bend                    10     9    15               107.66658
   59 Bend                    11     9    15               111.72401
   60 Bend                    12    11    13               109.38200
   61 Bend                    12    11    14               108.87506
   62 Bend                    13    11    14               108.94989
   63 Bend                    15    17    18               117.73291
   64 Bend                    15    17    19               124.84169
   65 Bend                    16    15    17               122.41093
   66 Bend                    17    19    20               109.48350
   67 Bend                    17    19    21               109.96493
   68 Bend                    17    19    32               111.61979
   69 Bend                    18    17    19               117.09420
   70 Bend                    19    21    22               109.98250
   71 Bend                    19    21    23               108.04580
   72 Bend                    19    21    24               113.98790
   73 Bend                    19    32    33               120.49105
   74 Bend                    19    32    34               118.73901
   75 Bend                    20    19    21               108.28652
   76 Bend                    20    19    32               106.40204
   77 Bend                    21    19    32               110.96097
   78 Bend                    21    24    25               125.98426
   79 Bend                    21    24    30               124.14830
   80 Bend                    22    21    23               107.36309
   81 Bend                    22    21    24               109.39934
   82 Bend                    23    21    24               107.82526
   83 Bend                    24    25    26               105.84303
   84 Bend                    24    30    28               106.69955
   85 Bend                    24    30    31               126.00766
   86 Bend                    25    24    30               108.74975
   87 Bend                    25    26    27               124.59359
   88 Bend                    25    26    28               110.48645
   89 Bend                    26    28    29               125.74657
   90 Bend                    26    28    30               108.20885
   91 Bend                    27    26    28               124.82060
   92 Bend                    28    30    31               126.87355
   93 Bend                    29    28    30               125.10341
   94 Bend                    32    34    35               118.40352
   95 Bend                    32    34    36               119.23347
   96 Bend                    33    32    34               120.71961
   97 Bend                    35    34    36               121.63205
   98 Torsion                  1     2     5     6        -119.82873
   99 Torsion                  1     2     5     7          60.05427
  100 Torsion                  2     5     7     8           3.47544
  101 Torsion                  2     5     7     9         173.48973
  102 Torsion                  3     2     5     6          -0.05319
  103 Torsion                  3     2     5     7         179.82981
  104 Torsion                  4     2     5     6         119.73365
  105 Torsion                  4     2     5     7         -60.38334
  106 Torsion                  5     7     9    10          26.17398
  107 Torsion                  5     7     9    11         143.48312
  108 Torsion                  5     7     9    15         -92.64551
  109 Torsion                  6     5     7     8        -176.64659
  110 Torsion                  6     5     7     9          -6.63231
  111 Torsion                  7     9    11    12         -57.53313
  112 Torsion                  7     9    11    13          62.91510
  113 Torsion                  7     9    11    14        -177.23536
  114 Torsion                  7     9    15    16         -28.15543
  115 Torsion                  7     9    15    17         152.12518
  116 Torsion                  8     7     9    10        -163.72289
  117 Torsion                  8     7     9    11         -46.41376
  118 Torsion                  8     7     9    15          77.45761
  119 Torsion                  9    15    17    18          -1.68662
  120 Torsion                  9    15    17    19        -174.86783
  121 Torsion                 10     9    11    12          60.23175
  122 Torsion                 10     9    11    13        -179.32003
  123 Torsion                 10     9    11    14         -59.47049
  124 Torsion                 10     9    15    16        -147.59431
  125 Torsion                 10     9    15    17          32.68631
  126 Torsion                 11     9    15    16          93.97975
  127 Torsion                 11     9    15    17         -85.73964
  128 Torsion                 12    11     9    15         178.45820
  129 Torsion                 13    11     9    15         -61.09358
  130 Torsion                 14    11     9    15          58.75596
  131 Torsion                 15    17    19    20         -44.33735
  132 Torsion                 15    17    19    21          74.52025
  133 Torsion                 15    17    19    32        -161.88023
  134 Torsion                 16    15    17    18         178.59897
  135 Torsion                 16    15    17    19           5.41776
  136 Torsion                 17    19    21    22         155.59030
  137 Torsion                 17    19    21    23         -87.50926
  138 Torsion                 17    19    21    24          32.31638
  139 Torsion                 17    19    32    33         120.74366
  140 Torsion                 17    19    32    34         -56.69484
  141 Torsion                 18    17    19    20         142.44194
  142 Torsion                 18    17    19    21         -98.70045
  143 Torsion                 18    17    19    32          24.89906
  144 Torsion                 19    21    24    25          68.66452
  145 Torsion                 19    21    24    30         -97.86965
  146 Torsion                 19    32    34    35        -179.91816
  147 Torsion                 19    32    34    36          -9.54947
  148 Torsion                 20    19    21    22         -84.82013
  149 Torsion                 20    19    21    23          32.08031
  150 Torsion                 20    19    21    24         151.90595
  151 Torsion                 20    19    32    33           1.35992
  152 Torsion                 20    19    32    34        -176.07859
  153 Torsion                 21    19    32    33        -116.22228
  154 Torsion                 21    19    32    34          66.33921
  155 Torsion                 21    24    25    26        -169.07935
  156 Torsion                 21    24    30    28         168.73165
  157 Torsion                 21    24    30    31          -4.23085
  158 Torsion                 22    21    19    32          31.60715
  159 Torsion                 22    21    24    25         -54.92553
  160 Torsion                 22    21    24    30         138.54030
  161 Torsion                 23    21    19    32         148.50759
  162 Torsion                 23    21    24    25        -171.38564
  163 Torsion                 23    21    24    30          22.08018
  164 Torsion                 24    21    19    32         -91.66677
  165 Torsion                 24    25    26    27         177.66281
  166 Torsion                 24    25    26    28           1.14396
  167 Torsion                 24    30    28    26           0.48908
  168 Torsion                 24    30    28    29        -168.91465
  169 Torsion                 25    24    30    28           0.20954
  170 Torsion                 25    24    30    31        -172.75296
  171 Torsion                 25    26    28    29         168.27413
  172 Torsion                 25    26    28    30          -1.04365
  173 Torsion                 26    25    24    30          -0.82204
  174 Torsion                 26    28    30    31         173.37220
  175 Torsion                 27    26    28    29          -8.23514
  176 Torsion                 27    26    28    30        -177.55292
  177 Torsion                 29    28    30    31           3.96848
  178 Torsion                 33    32    34    35           2.64939
  179 Torsion                 33    32    34    36         173.01808


            XYZ format geometry
            -------------------
    36
 geometry
 H                     0.48437063    -5.38276451    -0.31070979
 C                    -0.17309490    -4.63410694    -0.74876448
 H                    -1.20082672    -4.99435469    -0.72729676
 H                     0.12276716    -4.43565927    -1.77704420
 C                    -0.08168731    -3.35659069     0.05201194
 O                    -1.08302850    -2.90021027     0.59207002
 N                     1.12208448    -2.79117702     0.12363489
 H                     1.87209323    -3.21461317    -0.39696352
 C                     1.39276320    -1.48657954     0.73224350
 H                     0.62812836    -1.28590276     1.48545821
 C                     2.75147705    -1.54818190     1.44090479
 H                     2.74616221    -2.34609114     2.18391596
 H                     3.54246444    -1.73588158     0.71388431
 H                     2.94930179    -0.59982381     1.94280449
 C                     1.34038681    -0.34478497    -0.30382160
 O                     1.60763350    -0.55494801    -1.48619366
 N                     0.99996858     0.86513383     0.14931846
 H                     0.77434772     0.95312079     1.12731515
 C                     0.79039892     2.05424222    -0.69817655
 H                     1.58986414     2.11909306    -1.43862691
 C                    -0.55671188     1.93748206    -1.44773014
 H                    -0.92274843     2.92989171    -1.71315495
 H                    -0.37995042     1.39620595    -2.37797020
 C                    -1.62597540     1.19741459    -0.67791350
 N                    -2.26233596     1.64696636     0.48252713
 C                    -2.94621059     0.59394957     0.95678983
 H                    -3.52280329     0.59777619     1.87229801
 N                    -2.75220132    -0.48296802     0.17656555
 H                    -3.01635881    -1.43426125     0.40433519
 C                    -1.92848126    -0.11841445    -0.86160108
 H                    -1.49842028    -0.77155673    -1.60922045
 C                     0.85224603     3.34970587     0.12054615
 O                     1.67859874     4.21220943    -0.14376011
 N                     0.02913913     3.49326340     1.14939905
 H                     0.07311484     4.34489904     1.68178225
 H                    -0.71438491     2.82016818     1.28521450

 ==============================================================================
                                internuclear distances
 ------------------------------------------------------------------------------
       center one      |      center two      | atomic units |  angstroms
 ------------------------------------------------------------------------------
    2 C                |   1 H                |     2.05680  |     1.08841
    3 H                |   2 C                |     2.05839  |     1.08925
    4 H                |   2 C                |     2.05648  |     1.08824
    5 C                |   2 C                |     2.85445  |     1.51051
    6 O                |   5 C                |     2.31646  |     1.22582
    7 N                |   5 C                |     2.51688  |     1.33187
    8 H                |   7 N                |     1.90181  |     1.00640
    9 C                |   7 N                |     2.76808  |     1.46480
   10 H                |   9 C                |     2.06341  |     1.09191
   11 C                |   9 C                |     2.89819  |     1.53366
   12 H                |  11 C                |     2.06037  |     1.09030
   13 H                |  11 C                |     2.06097  |     1.09062
   14 H                |  11 C                |     2.06181  |     1.09106
   15 C                |   9 C                |     2.91525  |     1.54268
   16 O                |  15 C                |     2.32490  |     1.23028
   17 N                |  15 C                |     2.52484  |     1.33609
   18 H                |  17 N                |     1.90396  |     1.00753
   19 C                |  17 N                |     2.78768  |     1.47518
   20 H                |  19 C                |     2.06285  |     1.09161
   21 C                |  19 C                |     2.92155  |     1.54602
   22 H                |  21 C                |     2.06085  |     1.09055
   23 H                |  21 C                |     2.06108  |     1.09067
   24 C                |  21 C                |     2.85570  |     1.51117
   25 N                |  24 C                |     2.64134  |     1.39774
   26 C                |  25 N                |     2.53636  |     1.34218
   27 H                |  26 C                |     2.04460  |     1.08196
   28 N                |  26 C                |     2.53965  |     1.34393
   29 H                |  28 N                |     1.91471  |     1.01322
   30 C                |  24 C                |     2.57493  |     1.36259
   30 C                |  28 N                |     2.59740  |     1.37448
   31 H                |  30 C                |     2.04447  |     1.08189
   32 C                |  19 C                |     2.89835  |     1.53374
   33 O                |  32 C                |     2.31183  |     1.22337
   34 N                |  32 C                |     2.50462  |     1.32539
   35 H                |  34 N                |     1.89976  |     1.00531
   36 H                |  34 N                |     1.91258  |     1.01209
 ------------------------------------------------------------------------------
                         number of included internuclear distances:         36
 ==============================================================================



 ==============================================================================
                                 internuclear angles
 ------------------------------------------------------------------------------
        center 1       |       center 2       |       center 3       |  degrees
 ------------------------------------------------------------------------------
    1 H                |   2 C                |   3 H                |   109.54
    1 H                |   2 C                |   4 H                |   109.97
    1 H                |   2 C                |   5 C                |   109.38
    3 H                |   2 C                |   4 H                |   109.60
    3 H                |   2 C                |   5 C                |   109.05
    4 H                |   2 C                |   5 C                |   109.28
    2 C                |   5 C                |   6 O                |   119.93
    2 C                |   5 C                |   7 N                |   116.25
    6 O                |   5 C                |   7 N                |   123.82
    5 C                |   7 N                |   8 H                |   117.85
    5 C                |   7 N                |   9 C                |   124.57
    8 H                |   7 N                |   9 C                |   116.87
    7 N                |   9 C                |  10 H                |   108.72
    7 N                |   9 C                |  11 C                |   108.66
    7 N                |   9 C                |  15 C                |   111.95
   10 H                |   9 C                |  11 C                |   108.00
   10 H                |   9 C                |  15 C                |   107.67
   11 C                |   9 C                |  15 C                |   111.72
    9 C                |  11 C                |  12 H                |   109.87
    9 C                |  11 C                |  13 H                |   109.96
    9 C                |  11 C                |  14 H                |   109.77
   12 H                |  11 C                |  13 H                |   109.38
   12 H                |  11 C                |  14 H                |   108.88
   13 H                |  11 C                |  14 H                |   108.95
    9 C                |  15 C                |  16 O                |   120.77
    9 C                |  15 C                |  17 N                |   116.82
   16 O                |  15 C                |  17 N                |   122.41
   15 C                |  17 N                |  18 H                |   117.73
   15 C                |  17 N                |  19 C                |   124.84
   18 H                |  17 N                |  19 C                |   117.09
   17 N                |  19 C                |  20 H                |   109.48
   17 N                |  19 C                |  21 C                |   109.96
   17 N                |  19 C                |  32 C                |   111.62
   20 H                |  19 C                |  21 C                |   108.29
   20 H                |  19 C                |  32 C                |   106.40
   21 C                |  19 C                |  32 C                |   110.96
   19 C                |  21 C                |  22 H                |   109.98
   19 C                |  21 C                |  23 H                |   108.05
   19 C                |  21 C                |  24 C                |   113.99
   22 H                |  21 C                |  23 H                |   107.36
   22 H                |  21 C                |  24 C                |   109.40
   23 H                |  21 C                |  24 C                |   107.83
   21 C                |  24 C                |  25 N                |   125.98
   21 C                |  24 C                |  30 C                |   124.15
   25 N                |  24 C                |  30 C                |   108.75
   24 C                |  25 N                |  26 C                |   105.84
   25 N                |  26 C                |  27 H                |   124.59
   25 N                |  26 C                |  28 N                |   110.49
   27 H                |  26 C                |  28 N                |   124.82
   26 C                |  28 N                |  29 H                |   125.75
   26 C                |  28 N                |  30 C                |   108.21
   29 H                |  28 N                |  30 C                |   125.10
   24 C                |  30 C                |  28 N                |   106.70
   24 C                |  30 C                |  31 H                |   126.01
   28 N                |  30 C                |  31 H                |   126.87
   19 C                |  32 C                |  33 O                |   120.49
   19 C                |  32 C                |  34 N                |   118.74
   33 O                |  32 C                |  34 N                |   120.72
   32 C                |  34 N                |  35 H                |   118.40
   32 C                |  34 N                |  36 H                |   119.23
   35 H                |  34 N                |  36 H                |   121.63
 ------------------------------------------------------------------------------
                            number of included internuclear angles:         61
 ==============================================================================



  library name resolved from: environment
  library file name is: </opt/rit/el9/20230413/app/linux-rhel9-x86_64_v3/gcc-11.2.1/nwchem-7.2.0-oxtctbuhfuzyfaoziquq6bki22grib3g/share/nwchem/libraries/>
  


 Summary of "ao basis" -> "" (cartesian)
 ------------------------------------------------------------------------------
       Tag                 Description            Shells   Functions and Types
 ---------------- ------------------------------  ------  ---------------------
 *                        aug-cc-pvdz                 on all atoms 


                      Basis "ao basis" -> "ao basis" (cartesian)
                      -----
  H (Hydrogen)
  ------------
            Exponent  Coefficients 
       -------------- ---------------------------------------------------------
  1 S  1.30100000E+01  0.019685
  1 S  1.96200000E+00  0.137977
  1 S  4.44600000E-01  0.478148

  2 S  1.22000000E-01  1.000000

  3 S  2.97400000E-02  1.000000

  4 P  7.27000000E-01  1.000000

  5 P  1.41000000E-01  1.000000

  C (Carbon)
  ----------
            Exponent  Coefficients 
       -------------- ---------------------------------------------------------
  1 S  6.66500000E+03  0.000692
  1 S  1.00000000E+03  0.005329
  1 S  2.28000000E+02  0.027077
  1 S  6.47100000E+01  0.101718
  1 S  2.10600000E+01  0.274740
  1 S  7.49500000E+00  0.448564
  1 S  2.79700000E+00  0.285074
  1 S  5.21500000E-01  0.015204

  2 S  6.66500000E+03 -0.000146
  2 S  1.00000000E+03 -0.001154
  2 S  2.28000000E+02 -0.005725
  2 S  6.47100000E+01 -0.023312
  2 S  2.10600000E+01 -0.063955
  2 S  7.49500000E+00 -0.149981
  2 S  2.79700000E+00 -0.127262
  2 S  5.21500000E-01  0.544529

  3 S  1.59600000E-01  1.000000

  4 S  4.69000000E-02  1.000000

  5 P  9.43900000E+00  0.038109
  5 P  2.00200000E+00  0.209480
  5 P  5.45600000E-01  0.508557

  6 P  1.51700000E-01  1.000000

  7 P  4.04100000E-02  1.000000

  8 D  5.50000000E-01  1.000000

  9 D  1.51000000E-01  1.000000

  O (Oxygen)
  ----------
            Exponent  Coefficients 
       -------------- ---------------------------------------------------------
  1 S  1.17200000E+04  0.000710
  1 S  1.75900000E+03  0.005470
  1 S  4.00800000E+02  0.027837
  1 S  1.13700000E+02  0.104800
  1 S  3.70300000E+01  0.283062
  1 S  1.32700000E+01  0.448719
  1 S  5.02500000E+00  0.270952
  1 S  1.01300000E+00  0.015458

  2 S  1.17200000E+04 -0.000160
  2 S  1.75900000E+03 -0.001263
  2 S  4.00800000E+02 -0.006267
  2 S  1.13700000E+02 -0.025716
  2 S  3.70300000E+01 -0.070924
  2 S  1.32700000E+01 -0.165411
  2 S  5.02500000E+00 -0.116955
  2 S  1.01300000E+00  0.557368

  3 S  3.02300000E-01  1.000000

  4 S  7.89600000E-02  1.000000

  5 P  1.77000000E+01  0.043018
  5 P  3.85400000E+00  0.228913
  5 P  1.04600000E+00  0.508728

  6 P  2.75300000E-01  1.000000

  7 P  6.85600000E-02  1.000000

  8 D  1.18500000E+00  1.000000

  9 D  3.32000000E-01  1.000000

  N (Nitrogen)
  ------------
            Exponent  Coefficients 
       -------------- ---------------------------------------------------------
  1 S  9.04600000E+03  0.000700
  1 S  1.35700000E+03  0.005389
  1 S  3.09300000E+02  0.027406
  1 S  8.77300000E+01  0.103207
  1 S  2.85600000E+01  0.278723
  1 S  1.02100000E+01  0.448540
  1 S  3.83800000E+00  0.278238
  1 S  7.46600000E-01  0.015440

  2 S  9.04600000E+03 -0.000153
  2 S  1.35700000E+03 -0.001208
  2 S  3.09300000E+02 -0.005992
  2 S  8.77300000E+01 -0.024544
  2 S  2.85600000E+01 -0.067459
  2 S  1.02100000E+01 -0.158078
  2 S  3.83800000E+00 -0.121831
  2 S  7.46600000E-01  0.549003

  3 S  2.24800000E-01  1.000000

  4 S  6.12400000E-02  1.000000

  5 P  1.35500000E+01  0.039919
  5 P  2.91700000E+00  0.217169
  5 P  7.97300000E-01  0.510319

  6 P  2.18500000E-01  1.000000

  7 P  5.61100000E-02  1.000000

  8 D  8.17000000E-01  1.000000

  9 D  2.30000000E-01  1.000000



 Summary of "ao basis" -> "ao basis" (cartesian)
 ------------------------------------------------------------------------------
       Tag                 Description            Shells   Functions and Types
 ---------------- ------------------------------  ------  ---------------------
 H                        aug-cc-pvdz                5        9   3s2p
 C                        aug-cc-pvdz                9       25   4s3p2d
 O                        aug-cc-pvdz                9       25   4s3p2d
 N                        aug-cc-pvdz                9       25   4s3p2d


                                 NWChem SCF Module
                                 -----------------



  ao basis        = "ao basis"
  functions       =   628
  atoms           =    36
  closed shells   =    71
  open shells     =     0
  charge          =   0.00
  wavefunction    = RHF 
  input vectors   = atomic
  output vectors  = ./ALA_HIS_5.movecs
  use symmetry    = F
  symmetry adapt  = F


 Summary of "ao basis" -> "ao basis" (cartesian)
 ------------------------------------------------------------------------------
       Tag                 Description            Shells   Functions and Types
 ---------------- ------------------------------  ------  ---------------------
 H                        aug-cc-pvdz                5        9   3s2p
 C                        aug-cc-pvdz                9       25   4s3p2d
 O                        aug-cc-pvdz                9       25   4s3p2d
 N                        aug-cc-pvdz                9       25   4s3p2d



 Forming initial guess at       1.4s


 !! The overlap matrix has   7 vectors deemed linearly dependent with
    eigenvalues:
 2.48D-06 3.06D-06 3.98D-06 4.42D-06 7.64D-06 8.77D-06 9.31D-06


      Superposition of Atomic Density Guess
      -------------------------------------

 Sum of atomic energies:        -918.63993171

      Non-variational initial energy
      ------------------------------

 Total energy =    -931.272949
 1-e energy   =   -4299.090367
 2-e energy   =    1832.640515
 HOMO         =      -0.245243
 LUMO         =       0.008766


 Starting SCF solution at     306.8s



 ----------------------------------------------
         Quadratically convergent ROHF

 Convergence threshold     :          1.000E-04
 Maximum no. of iterations :           30
 Final Fock-matrix accuracy:          1.000E-10
 ----------------------------------------------


              iter       energy          gnorm     gmax       time
             ----- ------------------- --------- --------- --------
                 1     -923.0479241174  2.53D+00  1.32D-01    615.6
                 2     -923.3980872170  8.91D-01  4.53D-02   1319.4
                 3     -923.4665705510  6.82D-02  3.81D-03   2325.1
                 4     -923.4672489339  4.36D-03  3.21D-04   3714.3
                 5     -923.4672523630  1.34D-05  1.32D-06   6053.3


       Final RHF  results 
       ------------------ 

         Total SCF energy =   -923.467252363040
      One-electron energy =  -4312.047673016790
      Two-electron energy =   1853.403517159766
 Nuclear repulsion energy =   1535.176903493985

        Time for solution =   5755.2s


             Final eigenvalues
             -----------------

              1      
    1  -20.5394
    2  -20.5351
    3  -20.5182
    4  -15.6317
    5  -15.6115
    6  -15.6075
    7  -15.5822
    8  -15.5628
    9  -11.3704
   10  -11.3662
   11  -11.3515
   12  -11.3150
   13  -11.3093
   14  -11.2950
   15  -11.2620
   16  -11.2587
   17  -11.2549
   18  -11.2534
   19  -11.2455
   20   -1.4023
   21   -1.3913
   22   -1.3798
   23   -1.3466
   24   -1.2592
   25   -1.2532
   26   -1.2120
   27   -1.1671
   28   -1.0837
   29   -1.0605
   30   -1.0107
   31   -1.0017
   32   -0.9218
   33   -0.8919
   34   -0.8334
   35   -0.8220
   36   -0.8068
   37   -0.7990
   38   -0.7712
   39   -0.7496
   40   -0.7447
   41   -0.7156
   42   -0.6927
   43   -0.6835
   44   -0.6708
   45   -0.6403
   46   -0.6366
   47   -0.6254
   48   -0.6214
   49   -0.6063
   50   -0.6035
   51   -0.5972
   52   -0.5926
   53   -0.5861
   54   -0.5841
   55   -0.5760
   56   -0.5595
   57   -0.5531
   58   -0.5420
   59   -0.5307
   60   -0.5290
   61   -0.5181
   62   -0.5046
   63   -0.4467
   64   -0.4392
   65   -0.4383
   66   -0.4249
   67   -0.4118
   68   -0.4027
   69   -0.3958
   70   -0.3925
   71   -0.3207
   72    0.0245
   73    0.0317
   74    0.0357
   75    0.0450
   76    0.0487
   77    0.0498
   78    0.0564
   79    0.0582
   80    0.0659
   81    0.0691

                       ROHF Final Molecular Orbital Analysis
                       -------------------------------------

 Vector   20  Occ=2.000000D+00  E=-1.402257D+00
              MO Center= -1.9D-01, -2.6D+00,  1.7D-01, r^2= 2.8D+00
   Bfn.  Coefficient  Atom+Function         Bfn.  Coefficient  Atom+Function  
  ----- ------------  ---------------      ----- ------------  ---------------
    80      0.322461   6 O  s                79      0.316054   6 O  s         
    54      0.224672   5 C  s         

 Vector   21  Occ=2.000000D+00  E=-1.391347D+00
              MO Center=  1.1D+00, -5.3D-01, -6.6D-01, r^2= 4.0D+00
   Bfn.  Coefficient  Atom+Function         Bfn.  Coefficient  Atom+Function  
  ----- ------------  ---------------      ----- ------------  ---------------
   250      0.327196  16 O  s               249      0.306259  16 O  s         
   224      0.218132  15 C  s                80     -0.157548   6 O  s         
    79     -0.153619   6 O  s         

 Vector   22  Occ=2.000000D+00  E=-1.379778D+00
              MO Center=  1.3D+00,  3.6D+00, -9.2D-03, r^2= 2.2D+00
   Bfn.  Coefficient  Atom+Function         Bfn.  Coefficient  Atom+Function  
  ----- ------------  ---------------      ----- ------------  ---------------
   563      0.365957  33 O  s               562      0.341064  33 O  s         
   537      0.241097  32 C  s         

 Vector   23  Occ=2.000000D+00  E=-1.346627D+00
              MO Center= -2.5D+00,  2.6D-01,  1.8D-01, r^2= 1.3D+00
   Bfn.  Coefficient  Atom+Function         Bfn.  Coefficient  Atom+Function  
  ----- ------------  ---------------      ----- ------------  ---------------
   470      0.314969  28 N  s               469      0.289606  28 N  s         
   411      0.199042  25 N  s               435      0.193743  26 C  s         
   410      0.171104  25 N  s         

 Vector   24  Occ=2.000000D+00  E=-1.259194D+00
              MO Center=  8.1D-01, -2.7D+00,  1.8D-01, r^2= 1.8D+00
   Bfn.  Coefficient  Atom+Function         Bfn.  Coefficient  Atom+Function  
  ----- ------------  ---------------      ----- ------------  ---------------
   105      0.426639   7 N  s               104      0.343541   7 N  s         
    80     -0.209000   6 O  s                57      0.191842   5 C  px        
    79     -0.179762   6 O  s               128      0.157032   8 H  s         

 Vector   25  Occ=2.000000D+00  E=-1.253182D+00
              MO Center=  9.9D-01,  8.8D-01, -1.1D-01, r^2= 2.5D+00
   Bfn.  Coefficient  Atom+Function         Bfn.  Coefficient  Atom+Function  
  ----- ------------  ---------------      ----- ------------  ---------------
   275      0.374129  17 N  s               274      0.329737  17 N  s         
   250     -0.216342  16 O  s               309     -0.204137  19 C  s         
   249     -0.171727  16 O  s               298      0.153415  18 H  s         

 Vector   26  Occ=2.000000D+00  E=-1.211995D+00
              MO Center=  3.5D-01,  3.3D+00,  7.7D-01, r^2= 2.1D+00
   Bfn.  Coefficient  Atom+Function         Bfn.  Coefficient  Atom+Function  
  ----- ------------  ---------------      ----- ------------  ---------------
   587      0.358626  34 N  s               588      0.354407  34 N  s         
   563     -0.205711  33 O  s               562     -0.170795  33 O  s         
   620      0.160067  36 H  s               540     -0.155767  32 C  px        
   611      0.153790  35 H  s         

 Vector   27  Occ=2.000000D+00  E=-1.167111D+00
              MO Center= -2.3D+00,  6.9D-01,  2.0D-01, r^2= 2.2D+00
   Bfn.  Coefficient  Atom+Function         Bfn.  Coefficient  Atom+Function  
  ----- ------------  ---------------      ----- ------------  ---------------
   411      0.379142  25 N  s               470     -0.370298  28 N  s         
   410      0.291088  25 N  s               469     -0.262213  28 N  s         
   439      0.160072  26 C  py              385      0.153586  24 C  s         

 Vector   28  Occ=2.000000D+00  E=-1.083736D+00
              MO Center=  7.6D-01, -5.2D-01,  7.7D-02, r^2= 7.6D+00
   Bfn.  Coefficient  Atom+Function         Bfn.  Coefficient  Atom+Function  
  ----- ------------  ---------------      ----- ------------  ---------------
    12      0.201123   2 C  s               138     -0.197476   9 C  s         
   172     -0.160633  11 C  s               308      0.151471  19 C  s         

 Vector   29  Occ=2.000000D+00  E=-1.060453D+00
              MO Center= -6.0D-02, -9.9D-02, -2.2D-01, r^2= 8.8D+00
   Bfn.  Coefficient  Atom+Function         Bfn.  Coefficient  Atom+Function  
  ----- ------------  ---------------      ----- ------------  ---------------
   309      0.209822  19 C  s               342      0.196408  21 C  s         

 Vector   30  Occ=2.000000D+00  E=-1.010727D+00
              MO Center= -6.8D-01, -1.0D+00, -3.5D-01, r^2= 1.0D+01
   Bfn.  Coefficient  Atom+Function         Bfn.  Coefficient  Atom+Function  
  ----- ------------  ---------------      ----- ------------  ---------------
    11      0.214713   2 C  s               503      0.177715  30 C  s         
   437      0.169648  26 C  s                13      0.155002   2 C  s         
   308     -0.154242  19 C  s         

 Vector   31  Occ=2.000000D+00  E=-1.001691D+00
              MO Center=  1.9D-01, -1.9D+00, -7.2D-02, r^2= 1.1D+01
   Bfn.  Coefficient  Atom+Function         Bfn.  Coefficient  Atom+Function  
  ----- ------------  ---------------      ----- ------------  ---------------
    11      0.238697   2 C  s               172      0.175041  11 C  s         
   146      0.155836   9 C  pz               13      0.154003   2 C  s         

 Vector   32  Occ=2.000000D+00  E=-9.218343D-01
              MO Center=  2.6D-01,  4.4D-01, -1.5D-01, r^2= 8.1D+00
   Bfn.  Coefficient  Atom+Function         Bfn.  Coefficient  Atom+Function  
  ----- ------------  ---------------      ----- ------------  ---------------
   139      0.250396   9 C  s               342      0.212262  21 C  s         
   146     -0.189059   9 C  pz              172     -0.163048  11 C  s         

 Vector   33  Occ=2.000000D+00  E=-8.919473D-01
              MO Center=  1.0D+00, -3.2D-01,  3.3D-01, r^2= 9.2D+00
   Bfn.  Coefficient  Atom+Function         Bfn.  Coefficient  Atom+Function  
  ----- ------------  ---------------      ----- ------------  ---------------
   139      0.271017   9 C  s               146     -0.209958   9 C  pz        
   225     -0.200177  15 C  s               172     -0.192644  11 C  s         
   138      0.174606   9 C  s               309      0.157423  19 C  s         
   315      0.150047  19 C  py        

 Vector   34  Occ=2.000000D+00  E=-8.333718D-01
              MO Center= -2.2D+00,  1.1D-01,  2.2D-01, r^2= 4.3D+00
   Bfn.  Coefficient  Atom+Function         Bfn.  Coefficient  Atom+Function  
  ----- ------------  ---------------      ----- ------------  ---------------
   473     -0.264933  28 N  py              493      0.255578  29 H  s         
   411      0.246565  25 N  s               470      0.223167  28 N  s         
   435     -0.203448  26 C  s               504     -0.187062  30 C  s         
   386     -0.162388  24 C  s               389      0.162358  24 C  py        

 Vector   35  Occ=2.000000D+00  E=-8.219513D-01
              MO Center=  5.1D-01, -1.7D+00,  1.3D-01, r^2= 7.7D+00
   Bfn.  Coefficient  Atom+Function         Bfn.  Coefficient  Atom+Function  
  ----- ------------  ---------------      ----- ------------  ---------------
   107      0.296274   7 N  px               56      0.226536   5 C  s         
   128      0.200784   8 H  s                54     -0.189723   5 C  s         
   105      0.177145   7 N  s         

 Vector   36  Occ=2.000000D+00  E=-8.068269D-01
              MO Center=  3.2D-01,  1.4D+00,  9.4D-02, r^2= 5.4D+00
   Bfn.  Coefficient  Atom+Function         Bfn.  Coefficient  Atom+Function  
  ----- ------------  ---------------      ----- ------------  ---------------
   225      0.251978  15 C  s               298     -0.238125  18 H  s         
   279     -0.236383  17 N  pz              538     -0.193199  32 C  s         
   275     -0.178420  17 N  s               309      0.157920  19 C  s         

 Vector   37  Occ=2.000000D+00  E=-7.990053D-01
              MO Center=  8.0D-01,  4.9D-01,  3.8D-01, r^2= 9.2D+00
   Bfn.  Coefficient  Atom+Function         Bfn.  Coefficient  Atom+Function  
  ----- ------------  ---------------      ----- ------------  ---------------
   128      0.205059   8 H  s               539     -0.193362  32 C  s         
   163     -0.187480  10 H  s               309      0.183700  19 C  s         
    55     -0.182591   5 C  s               592     -0.181393  34 N  pz        
   107      0.174269   7 N  px              537      0.171391  32 C  s         
   278     -0.170525  17 N  py              105      0.155350   7 N  s         

 Vector   38  Occ=2.000000D+00  E=-7.711765D-01
              MO Center= -2.0D+00,  3.9D-01, -2.4D-02, r^2= 4.0D+00
   Bfn.  Coefficient  Atom+Function         Bfn.  Coefficient  Atom+Function  
  ----- ------------  ---------------      ----- ------------  ---------------
   439      0.222187  26 C  py              527      0.212099  31 H  s         
   473     -0.201465  28 N  py              507     -0.172249  30 C  py        
   415      0.169748  25 N  pz              418      0.153023  25 N  pz        
   440      0.150377  26 C  pz        

 Vector   39  Occ=2.000000D+00  E=-7.495521D-01
              MO Center=  8.3D-02,  5.9D-01,  2.3D-01, r^2= 8.9D+00
   Bfn.  Coefficient  Atom+Function         Bfn.  Coefficient  Atom+Function  
  ----- ------------  ---------------      ----- ------------  ---------------
   225      0.242530  15 C  s               145     -0.197267   9 C  py        
   279     -0.191568  17 N  pz              620     -0.174809  36 H  s         
   590      0.168097  34 N  px               55      0.155896   5 C  s         

 Vector   40  Occ=2.000000D+00  E=-7.447209D-01
              MO Center= -1.1D+00,  1.2D+00,  9.6D-02, r^2= 7.4D+00
   Bfn.  Coefficient  Atom+Function         Bfn.  Coefficient  Atom+Function  
  ----- ------------  ---------------      ----- ------------  ---------------
   620      0.174518  36 H  s               539      0.173016  32 C  s         
   459      0.162402  27 H  s               309      0.159187  19 C  s         
   538     -0.155353  32 C  s         

 Vector   41  Occ=2.000000D+00  E=-7.155613D-01
              MO Center=  3.7D-01,  1.1D+00,  5.2D-01, r^2= 1.0D+01
   Bfn.  Coefficient  Atom+Function         Bfn.  Coefficient  Atom+Function  
  ----- ------------  ---------------      ----- ------------  ---------------
   225      0.270275  15 C  s               591     -0.266448  34 N  py        
   611     -0.239001  35 H  s               620      0.213433  36 H  s         
   145     -0.184875   9 C  py              228      0.185668  15 C  py        
   139     -0.166162   9 C  s               621      0.161263  36 H  s         

 Vector   42  Occ=2.000000D+00  E=-6.927236D-01
              MO Center=  1.7D-01, -1.0D+00,  1.4D-01, r^2= 1.1D+01
   Bfn.  Coefficient  Atom+Function         Bfn.  Coefficient  Atom+Function  
  ----- ------------  ---------------      ----- ------------  ---------------
    80      0.213672   6 O  s                57      0.193226   5 C  px        
    13      0.182854   2 C  s                56     -0.183580   5 C  s         
    12     -0.173464   2 C  s                83      0.169795   6 O  py        
   315      0.167389  19 C  py               18     -0.163325   2 C  py        
   309      0.162593  19 C  s                84      0.154211   6 O  pz        

 Vector   43  Occ=2.000000D+00  E=-6.835440D-01
              MO Center=  7.6D-01, -1.9D+00, -7.4D-02, r^2= 7.0D+00
   Bfn.  Coefficient  Atom+Function         Bfn.  Coefficient  Atom+Function  
  ----- ------------  ---------------      ----- ------------  ---------------
   143     -0.177083   9 C  pz               83      0.172458   6 O  py        
   254      0.172405  16 O  pz               58      0.170609   5 C  py        
   107     -0.156262   7 N  px        

 Vector   44  Occ=2.000000D+00  E=-6.708187D-01
              MO Center=  6.2D-01, -9.0D-02,  2.0D-01, r^2= 1.1D+01
   Bfn.  Coefficient  Atom+Function         Bfn.  Coefficient  Atom+Function  
  ----- ------------  ---------------      ----- ------------  ---------------
   139      0.309653   9 C  s               145      0.227454   9 C  py        
   315     -0.171117  19 C  py              108     -0.164940   7 N  py        
   142      0.154886   9 C  py        

 Vector   45  Occ=2.000000D+00  E=-6.402531D-01
              MO Center=  4.2D-01, -1.2D+00, -3.3D-01, r^2= 8.9D+00
   Bfn.  Coefficient  Atom+Function         Bfn.  Coefficient  Atom+Function  
  ----- ------------  ---------------      ----- ------------  ---------------
   309      0.267893  19 C  s               528      0.202291  31 H  s         
   254     -0.186293  16 O  pz              315      0.164506  19 C  py        
   227     -0.161387  15 C  px              538     -0.161819  32 C  s         

 Vector   46  Occ=2.000000D+00  E=-6.366147D-01
              MO Center=  2.3D-01,  3.5D-01, -4.1D-01, r^2= 9.8D+00
   Bfn.  Coefficient  Atom+Function         Bfn.  Coefficient  Atom+Function  
  ----- ------------  ---------------      ----- ------------  ---------------
    56      0.187768   5 C  s               347      0.166102  21 C  pz        
   311     -0.158007  19 C  px              254      0.156986  16 O  pz        
   163      0.152929  10 H  s               375     -0.151310  23 H  s         

 Vector   47  Occ=2.000000D+00  E=-6.254423D-01
              MO Center= -9.2D-01, -7.2D-01, -2.2D-01, r^2= 1.0D+01
   Bfn.  Coefficient  Atom+Function         Bfn.  Coefficient  Atom+Function  
  ----- ------------  ---------------      ----- ------------  ---------------
   139      0.267631   9 C  s               474     -0.167925  28 N  pz        
   309     -0.161394  19 C  s                16     -0.154486   2 C  pz        

 Vector   48  Occ=2.000000D+00  E=-6.214402D-01
              MO Center=  4.3D-01,  1.0D-01, -2.0D-01, r^2= 1.2D+01
   Bfn.  Coefficient  Atom+Function         Bfn.  Coefficient  Atom+Function  
  ----- ------------  ---------------      ----- ------------  ---------------
   254      0.213910  16 O  pz              229     -0.187144  15 C  pz        
   566     -0.181855  33 O  py              250     -0.160221  16 O  s         

 Vector   49  Occ=2.000000D+00  E=-6.063043D-01
              MO Center= -3.8D-01,  9.4D-01, -1.8D-01, r^2= 1.0D+01
   Bfn.  Coefficient  Atom+Function         Bfn.  Coefficient  Atom+Function  
  ----- ------------  ---------------      ----- ------------  ---------------
   508      0.216430  30 C  pz              527     -0.204698  31 H  s         
   528     -0.202025  31 H  s               566     -0.195865  33 O  py        
   472      0.194054  28 N  px              563     -0.164699  33 O  s         

 Vector   50  Occ=2.000000D+00  E=-6.034880D-01
              MO Center= -8.3D-01,  2.2D-01, -2.3D-01, r^2= 9.0D+00
   Bfn.  Coefficient  Atom+Function         Bfn.  Coefficient  Atom+Function  
  ----- ------------  ---------------      ----- ------------  ---------------
   527      0.257956  31 H  s               528      0.229703  31 H  s         
   507     -0.214045  30 C  py              437     -0.203096  26 C  s         
   508     -0.168850  30 C  pz        

 Vector   51  Occ=2.000000D+00  E=-5.972165D-01
              MO Center=  5.7D-01, -1.5D+00,  3.5D-01, r^2= 1.0D+01
   Bfn.  Coefficient  Atom+Function         Bfn.  Coefficient  Atom+Function  
  ----- ------------  ---------------      ----- ------------  ---------------
    82      0.220693   6 O  px              214      0.197666  14 H  s         
    15     -0.169786   2 C  py              176      0.163807  11 C  py        
   163     -0.160368  10 H  s               177      0.153515  11 C  pz        
    18     -0.150977   2 C  py        

 Vector   52  Occ=2.000000D+00  E=-5.926013D-01
              MO Center= -4.8D-01, -9.2D-01,  7.7D-02, r^2= 9.1D+00
   Bfn.  Coefficient  Atom+Function         Bfn.  Coefficient  Atom+Function  
  ----- ------------  ---------------      ----- ------------  ---------------
    82      0.194679   6 O  px              472      0.180442  28 N  px        
   475      0.157894  28 N  px        

 Vector   53  Occ=2.000000D+00  E=-5.861018D-01
              MO Center= -5.3D-01, -6.5D-01, -1.1D-01, r^2= 1.2D+01
   Bfn.  Coefficient  Atom+Function         Bfn.  Coefficient  Atom+Function  
  ----- ------------  ---------------      ----- ------------  ---------------
    13      0.289019   2 C  s                36     -0.210211   3 H  s         
    56     -0.184308   5 C  s               528     -0.182815  31 H  s         
    14      0.165226   2 C  px               82      0.155240   6 O  px        
    44      0.153401   4 H  s               413     -0.154146  25 N  px        
    64      0.150095   5 C  py        

 Vector   54  Occ=2.000000D+00  E=-5.840522D-01
              MO Center=  1.4D-01, -8.0D-01, -1.5D-01, r^2= 1.4D+01
   Bfn.  Coefficient  Atom+Function         Bfn.  Coefficient  Atom+Function  
  ----- ------------  ---------------      ----- ------------  ---------------
    14      0.220891   2 C  px               36     -0.206098   3 H  s         
    35     -0.201908   3 H  s               313     -0.161680  19 C  pz        

 Vector   55  Occ=2.000000D+00  E=-5.759710D-01
              MO Center=  7.2D-01,  1.0D+00,  1.5D-01, r^2= 1.3D+01
   Bfn.  Coefficient  Atom+Function         Bfn.  Coefficient  Atom+Function  
  ----- ------------  ---------------      ----- ------------  ---------------
   565      0.253036  33 O  px              541     -0.209875  32 C  py        
   568      0.161117  33 O  px              590      0.157150  34 N  px        
   316      0.151705  19 C  pz        

 Vector   56  Occ=2.000000D+00  E=-5.594585D-01
              MO Center=  5.2D-01, -1.3D+00,  9.6D-03, r^2= 1.4D+01
   Bfn.  Coefficient  Atom+Function         Bfn.  Coefficient  Atom+Function  
  ----- ------------  ---------------      ----- ------------  ---------------
    13      0.255610   2 C  s                14      0.217348   2 C  px        
   215      0.200299  14 H  s                36     -0.191099   3 H  s         
    35     -0.189912   3 H  s               108      0.180912   7 N  py        
     1      0.169876   1 H  s                73     -0.162164   5 C  dxy       
   214      0.158551  14 H  s         

 Vector   57  Occ=2.000000D+00  E=-5.530620D-01
              MO Center=  1.7D+00, -1.1D+00,  5.6D-01, r^2= 8.2D+00
   Bfn.  Coefficient  Atom+Function         Bfn.  Coefficient  Atom+Function  
  ----- ------------  ---------------      ----- ------------  ---------------
   196     -0.263350  12 H  s               197     -0.262403  12 H  s         
   163      0.256388  10 H  s               176      0.241070  11 C  py        
   215      0.185244  14 H  s               252     -0.160507  16 O  px        
   214      0.155275  14 H  s               253      0.151578  16 O  py        

 Vector   58  Occ=2.000000D+00  E=-5.419798D-01
              MO Center=  7.1D-01, -1.9D-01,  4.2D-03, r^2= 9.6D+00
   Bfn.  Coefficient  Atom+Function         Bfn.  Coefficient  Atom+Function  
  ----- ------------  ---------------      ----- ------------  ---------------
   366      0.203473  22 H  s               205      0.197996  13 H  s         
   206      0.193190  13 H  s               346      0.189140  21 C  py        
   162      0.175318  10 H  s               215     -0.156841  14 H  s         
   177     -0.154832  11 C  pz        

 Vector   59  Occ=2.000000D+00  E=-5.307268D-01
              MO Center=  2.9D-01,  1.0D+00, -1.0D-01, r^2= 9.2D+00
   Bfn.  Coefficient  Atom+Function         Bfn.  Coefficient  Atom+Function  
  ----- ------------  ---------------      ----- ------------  ---------------
   163      0.248774  10 H  s               348     -0.222896  21 C  px        
   346     -0.205603  21 C  py              141     -0.189517   9 C  px        
   175      0.183500  11 C  px              276     -0.163592  17 N  s         
   333      0.161799  20 H  s               388      0.154606  24 C  px        

 Vector   60  Occ=2.000000D+00  E=-5.289624D-01
              MO Center=  6.8D-02, -2.5D+00, -1.3D-01, r^2= 7.3D+00
   Bfn.  Coefficient  Atom+Function         Bfn.  Coefficient  Atom+Function  
  ----- ------------  ---------------      ----- ------------  ---------------
    84      0.243308   6 O  pz               83     -0.192273   6 O  py        
    44      0.187126   4 H  s                16     -0.176155   2 C  pz        
    87      0.175488   6 O  pz                2     -0.167325   1 H  s         
    45      0.163526   4 H  s                59      0.162777   5 C  pz        
     1     -0.161575   1 H  s               109      0.154911   7 N  pz        

 Vector   61  Occ=2.000000D+00  E=-5.180924D-01
              MO Center=  5.5D-01,  1.1D+00, -4.5D-01, r^2= 8.0D+00
   Bfn.  Coefficient  Atom+Function         Bfn.  Coefficient  Atom+Function  
  ----- ------------  ---------------      ----- ------------  ---------------
   163      0.236812  10 H  s               347      0.222648  21 C  pz        
   375     -0.223278  23 H  s               567      0.205131  33 O  pz        
   376     -0.204066  23 H  s               141     -0.171770   9 C  px        
   252      0.164579  16 O  px              175      0.150163  11 C  px        

 Vector   62  Occ=2.000000D+00  E=-5.046187D-01
              MO Center=  5.4D-01,  8.1D-01, -7.1D-01, r^2= 6.1D+00
   Bfn.  Coefficient  Atom+Function         Bfn.  Coefficient  Atom+Function  
  ----- ------------  ---------------      ----- ------------  ---------------
   252      0.229802  16 O  px              332     -0.222869  20 H  s         
   345      0.195698  21 C  px              376      0.193839  23 H  s         
   538      0.194544  32 C  s               375      0.192544  23 H  s         
   311     -0.188742  19 C  px              255      0.176842  16 O  px        
   141     -0.164889   9 C  px              309     -0.162670  19 C  s         

 Vector   63  Occ=2.000000D+00  E=-4.467075D-01
              MO Center= -1.4D+00,  1.6D+00,  2.3D-01, r^2= 5.3D+00
   Bfn.  Coefficient  Atom+Function         Bfn.  Coefficient  Atom+Function  
  ----- ------------  ---------------      ----- ------------  ---------------
   414      0.378661  25 N  py              411      0.282690  25 N  s         
   417      0.273112  25 N  py              412      0.226903  25 N  s         
   415      0.214283  25 N  pz              567      0.169421  33 O  pz        
   389     -0.161057  24 C  py              507      0.161366  30 C  py        
   392     -0.158695  24 C  py              418      0.155673  25 N  pz        

 Vector   64  Occ=2.000000D+00  E=-4.392424D-01
              MO Center=  8.3D-01, -7.8D-01, -5.3D-01, r^2= 6.0D+00
   Bfn.  Coefficient  Atom+Function         Bfn.  Coefficient  Atom+Function  
  ----- ------------  ---------------      ----- ------------  ---------------
   253      0.436268  16 O  py              256      0.349661  16 O  py        
   309     -0.208322  19 C  s               109     -0.183818   7 N  pz        
   112     -0.157534   7 N  pz               84      0.152372   6 O  pz        

 Vector   65  Occ=2.000000D+00  E=-4.382650D-01
              MO Center= -6.6D-01, -3.1D+00,  3.2D-01, r^2= 2.3D+00
   Bfn.  Coefficient  Atom+Function         Bfn.  Coefficient  Atom+Function  
  ----- ------------  ---------------      ----- ------------  ---------------
    13      0.619074   2 C  s                56     -0.447000   5 C  s         
    83     -0.385486   6 O  py               64      0.333904   5 C  py        
    86     -0.304372   6 O  py               84     -0.274806   6 O  pz        
    82     -0.264581   6 O  px               85     -0.220713   6 O  px        
    87     -0.211320   6 O  pz              105      0.211154   7 N  s         

 Vector   66  Occ=2.000000D+00  E=-4.248735D-01
              MO Center=  1.0D+00,  2.1D+00, -1.9D-01, r^2= 8.0D+00
   Bfn.  Coefficient  Atom+Function         Bfn.  Coefficient  Atom+Function  
  ----- ------------  ---------------      ----- ------------  ---------------
   567      0.312832  33 O  pz              538      0.298605  32 C  s         
   566      0.243584  33 O  py              570      0.241718  33 O  pz        
   277      0.215941  17 N  px              309     -0.215925  19 C  s         
   280      0.190236  17 N  px              569      0.190034  33 O  py        
   252     -0.187113  16 O  px              367     -0.184749  22 H  s         

 Vector   67  Occ=2.000000D+00  E=-4.117968D-01
              MO Center=  6.8D-01, -1.4D+00, -3.4D-02, r^2= 5.5D+00
   Bfn.  Coefficient  Atom+Function         Bfn.  Coefficient  Atom+Function  
  ----- ------------  ---------------      ----- ------------  ---------------
   109      0.281369   7 N  pz              112      0.252163   7 N  pz        
   253      0.240816  16 O  py              256      0.202550  16 O  py        
   277     -0.201052  17 N  px               84     -0.183233   6 O  pz        
   163      0.176129  10 H  s               280     -0.172335  17 N  px        
    83      0.169112   6 O  py              111     -0.153879   7 N  py        

 Vector   68  Occ=2.000000D+00  E=-4.026815D-01
              MO Center=  7.0D-01,  3.7D+00,  5.6D-01, r^2= 2.6D+00
   Bfn.  Coefficient  Atom+Function         Bfn.  Coefficient  Atom+Function  
  ----- ------------  ---------------      ----- ------------  ---------------
   592     -0.276889  34 N  pz              590     -0.274697  34 N  px        
   565      0.272591  33 O  px              284      0.246196  17 N  py        
   593     -0.234339  34 N  px              595     -0.229150  34 N  pz        
   568      0.212435  33 O  px              567      0.208284  33 O  pz        
   591      0.203216  34 N  py              566     -0.197009  33 O  py        

 Vector   69  Occ=2.000000D+00  E=-3.958435D-01
              MO Center= -2.0D+00,  7.5D-01,  1.6D-01, r^2= 4.0D+00
   Bfn.  Coefficient  Atom+Function         Bfn.  Coefficient  Atom+Function  
  ----- ------------  ---------------      ----- ------------  ---------------
   413      0.292067  25 N  px              472     -0.287793  28 N  px        
   416      0.270154  25 N  px              475     -0.264225  28 N  px        
   474     -0.183022  28 N  pz              415      0.179073  25 N  pz        
   471      0.158804  28 N  s               477     -0.154018  28 N  pz        

 Vector   70  Occ=2.000000D+00  E=-3.924745D-01
              MO Center=  9.4D-01,  1.1D+00, -3.0D-01, r^2= 6.4D+00
   Bfn.  Coefficient  Atom+Function         Bfn.  Coefficient  Atom+Function  
  ----- ------------  ---------------      ----- ------------  ---------------
   277      0.313718  17 N  px              280      0.295374  17 N  px        
   252     -0.253209  16 O  px              567     -0.231000  33 O  pz        
   255     -0.206146  16 O  px              570     -0.181788  33 O  pz        
   566     -0.162912  33 O  py              276      0.154938  17 N  s         

 Vector   71  Occ=2.000000D+00  E=-3.206789D-01
              MO Center= -2.1D+00,  5.6D-01, -3.5D-01, r^2= 2.8D+00
   Bfn.  Coefficient  Atom+Function         Bfn.  Coefficient  Atom+Function  
  ----- ------------  ---------------      ----- ------------  ---------------
   506      0.286798  30 C  px              438     -0.241641  26 C  px        
   509      0.238865  30 C  px              388      0.225366  24 C  px        
   508      0.211622  30 C  pz              276     -0.196818  17 N  s         
   471      0.197350  28 N  s               387     -0.194365  24 C  s         
   391      0.190977  24 C  px              390      0.182790  24 C  pz        

 Vector   72  Occ=0.000000D+00  E= 2.452353D-02
              MO Center=  1.0D+00, -3.8D+00,  1.3D+00, r^2= 2.9D+01
   Bfn.  Coefficient  Atom+Function         Bfn.  Coefficient  Atom+Function  
  ----- ------------  ---------------      ----- ------------  ---------------
    56      3.168251   5 C  s               148     -2.631254   9 C  py        
    64     -2.534670   5 C  py              539      1.878398  32 C  s         
     3     -1.816241   1 H  s               106     -1.820020   7 N  s         
   198     -1.659030  12 H  s               174      1.612668  11 C  s         
   226      1.580586  15 C  s               461     -1.566372  27 H  s         

 Vector   73  Occ=0.000000D+00  E= 3.167131D-02
              MO Center= -1.4D+00, -8.0D-01,  2.1D+00, r^2= 3.6D+01
   Bfn.  Coefficient  Atom+Function         Bfn.  Coefficient  Atom+Function  
  ----- ------------  ---------------      ----- ------------  ---------------
   461      3.532092  27 H  s               396     -2.970825  24 C  pz        
    64     -2.807798   5 C  py              148     -2.325096   9 C  py        
   446     -2.264465  26 C  pz              539     -1.829096  32 C  s         
   589      1.712151  34 N  s               234     -1.698033  15 C  py        
   164      1.679553  10 H  s               505     -1.598488  30 C  s         

 Vector   74  Occ=0.000000D+00  E= 3.570272D-02
              MO Center= -2.4D-01, -2.9D+00,  7.2D-01, r^2= 3.6D+01
   Bfn.  Coefficient  Atom+Function         Bfn.  Coefficient  Atom+Function  
  ----- ------------  ---------------      ----- ------------  ---------------
   147      3.480269   9 C  px               64      3.319226   5 C  py        
    63      2.377536   5 C  px              198     -2.174232  12 H  s         
    37      2.099762   3 H  s                56      1.974360   5 C  s         
   149      1.788742   9 C  pz              148      1.691302   9 C  py        
   173      1.497340  11 C  s               174     -1.496951  11 C  s         

 Vector   75  Occ=0.000000D+00  E= 4.503779D-02
              MO Center=  3.0D-01,  1.7D-01, -1.5D-01, r^2= 4.2D+01
   Bfn.  Coefficient  Atom+Function         Bfn.  Coefficient  Atom+Function  
  ----- ------------  ---------------      ----- ------------  ---------------
   395      2.692504  24 C  py              318      2.621723  19 C  py        
   198      2.340102  12 H  s               317      2.314105  19 C  px        
   514     -2.121172  30 C  pz               46     -2.077179   4 H  s         
    56     -2.033348   5 C  s               235     -1.916796  15 C  pz        
   589     -1.920112  34 N  s               613     -1.855999  35 H  s         

 Vector   76  Occ=0.000000D+00  E= 4.870513D-02
              MO Center= -3.7D-01, -2.4D+00,  1.0D+00, r^2= 3.9D+01
   Bfn.  Coefficient  Atom+Function         Bfn.  Coefficient  Atom+Function  
  ----- ------------  ---------------      ----- ------------  ---------------
    56      3.766436   5 C  s               461     -3.574938  27 H  s         
   174     -3.309454  11 C  s                37      3.068987   3 H  s         
   396      2.355380  24 C  pz              446      2.312185  26 C  pz        
   216      2.299177  14 H  s               529      2.261515  31 H  s         
   310      2.150314  19 C  s               130     -2.039201   8 H  s         

 Vector   77  Occ=0.000000D+00  E= 4.975082D-02
              MO Center=  4.2D-01, -9.8D-01,  8.1D-01, r^2= 4.6D+01
   Bfn.  Coefficient  Atom+Function         Bfn.  Coefficient  Atom+Function  
  ----- ------------  ---------------      ----- ------------  ---------------
    56      2.737423   5 C  s               147     -2.627512   9 C  px        
   207      2.498023  13 H  s                 3     -2.385518   1 H  s         
   318      2.243559  19 C  py              539     -2.155612  32 C  s         
   613     -2.016979  35 H  s               548      1.854105  32 C  pz        
   234      1.504663  15 C  py              495      1.457924  29 H  s         

 Vector   78  Occ=0.000000D+00  E= 5.637835D-02
              MO Center=  3.3D-01, -1.1D-01, -1.2D+00, r^2= 4.0D+01
   Bfn.  Coefficient  Atom+Function         Bfn.  Coefficient  Atom+Function  
  ----- ------------  ---------------      ----- ------------  ---------------
   368      2.904387  22 H  s               106      2.807860   7 N  s         
   198      2.806407  12 H  s               207     -2.819385  13 H  s         
   514      2.365322  30 C  pz              377      2.213831  23 H  s         
    56     -2.066613   5 C  s               529      2.049104  31 H  s         
   216     -1.982838  14 H  s               395     -1.951140  24 C  py        

 Vector   79  Occ=0.000000D+00  E= 5.821545D-02
              MO Center= -1.0D-01, -8.3D-01, -2.8D-01, r^2= 4.2D+01
   Bfn.  Coefficient  Atom+Function         Bfn.  Coefficient  Atom+Function  
  ----- ------------  ---------------      ----- ------------  ---------------
   164      3.956593  10 H  s                46      3.513636   4 H  s         
    13     -3.190135   2 C  s               368     -2.701077  22 H  s         
    56     -2.414558   5 C  s               148     -2.146338   9 C  py        
    63     -2.059569   5 C  px              613     -2.032896  35 H  s         
    37     -1.948788   3 H  s               352      1.900296  21 C  py        

 Vector   80  Occ=0.000000D+00  E= 6.592122D-02
              MO Center=  7.2D-01, -1.2D-01, -3.6D-01, r^2= 4.5D+01
   Bfn.  Coefficient  Atom+Function         Bfn.  Coefficient  Atom+Function  
  ----- ------------  ---------------      ----- ------------  ---------------
    13      3.968120   2 C  s               198      3.196186  12 H  s         
   529      3.038487  31 H  s               234      2.922446  15 C  py        
    56     -2.760801   5 C  s               334     -2.721247  20 H  s         
   216     -2.599106  14 H  s               276     -2.420250  17 N  s         
   539      2.142265  32 C  s                 3     -2.115446   1 H  s         

 Vector   81  Occ=0.000000D+00  E= 6.911771D-02
              MO Center=  2.4D-01, -1.3D+00,  1.1D+00, r^2= 3.9D+01
   Bfn.  Coefficient  Atom+Function         Bfn.  Coefficient  Atom+Function  
  ----- ------------  ---------------      ----- ------------  ---------------
   164      5.665746  10 H  s                56     -4.856017   5 C  s         
   461     -3.232027  27 H  s               148     -3.096494   9 C  py        
   334      2.683805  20 H  s               198     -2.514913  12 H  s         
   495      2.505457  29 H  s               216     -2.452191  14 H  s         
    64     -2.408934   5 C  py              147      2.327487   9 C  px        

 Vector   82  Occ=0.000000D+00  E= 7.335124D-02
              MO Center=  2.8D-01, -2.0D+00,  7.4D-01, r^2= 4.2D+01
   Bfn.  Coefficient  Atom+Function         Bfn.  Coefficient  Atom+Function  
  ----- ------------  ---------------      ----- ------------  ---------------
   216      4.802324  14 H  s                37     -4.147247   3 H  s         
    56     -3.916695   5 C  s                 3      3.649008   1 H  s         
   164     -3.549503  10 H  s               207     -2.920099  13 H  s         
   234     -2.670178  15 C  py              529      2.522269  31 H  s         
   300      2.382803  18 H  s               147     -2.233460   9 C  px        

 Vector   83  Occ=0.000000D+00  E= 7.626447D-02
              MO Center= -7.1D-02,  1.6D+00, -1.6D+00, r^2= 3.5D+01
   Bfn.  Coefficient  Atom+Function         Bfn.  Coefficient  Atom+Function  
  ----- ------------  ---------------      ----- ------------  ---------------
    56      7.189119   5 C  s                13     -6.342985   2 C  s         
   368      6.168855  22 H  s               352     -4.612917  21 C  py        
   164      4.292598  10 H  s               234      4.023609  15 C  py        
   318      3.478861  19 C  py              377     -3.433053  23 H  s         
   334     -3.360196  20 H  s                65     -2.310904   5 C  pz        

 Vector   84  Occ=0.000000D+00  E= 7.808048D-02
              MO Center= -8.0D-02, -6.9D-01, -5.2D-01, r^2= 4.2D+01
   Bfn.  Coefficient  Atom+Function         Bfn.  Coefficient  Atom+Function  
  ----- ------------  ---------------      ----- ------------  ---------------
   529      5.346779  31 H  s               622      4.009705  36 H  s         
    46     -3.767776   4 H  s               207      3.712912  13 H  s         
    13      3.067953   2 C  s               514      2.914015  30 C  pz        
   149     -2.780535   9 C  pz              334     -2.774277  20 H  s         
   198     -2.757927  12 H  s               495     -2.693923  29 H  s         

 Vector   85  Occ=0.000000D+00  E= 8.931129D-02
              MO Center=  4.1D-01, -8.6D-01, -1.7D+00, r^2= 3.7D+01
   Bfn.  Coefficient  Atom+Function         Bfn.  Coefficient  Atom+Function  
  ----- ------------  ---------------      ----- ------------  ---------------
   377      8.855213  23 H  s               529     -5.319798  31 H  s         
   334     -5.039120  20 H  s               164     -4.815389  10 H  s         
   174     -4.138317  11 C  s               149      4.112491   9 C  pz        
   130      3.941141   8 H  s               148      3.784216   9 C  py        
   207     -3.713308  13 H  s               353      3.451459  21 C  pz        

 Vector   86  Occ=0.000000D+00  E= 9.252969D-02
              MO Center=  1.1D+00, -1.5D-01, -1.6D-01, r^2= 4.1D+01
   Bfn.  Coefficient  Atom+Function         Bfn.  Coefficient  Atom+Function  
  ----- ------------  ---------------      ----- ------------  ---------------
   334     -5.789319  20 H  s               207      5.538373  13 H  s         
   377      5.036283  23 H  s               130     -4.905484   8 H  s         
   317      4.126268  19 C  px              148     -3.812666   9 C  py        
   622     -3.800615  36 H  s               149     -3.313897   9 C  pz        
   164      3.318339  10 H  s                56     -3.269506   5 C  s         

 Vector   87  Occ=0.000000D+00  E= 9.772181D-02
              MO Center= -2.5D-01, -1.7D+00,  8.0D-01, r^2= 3.7D+01
   Bfn.  Coefficient  Atom+Function         Bfn.  Coefficient  Atom+Function  
  ----- ------------  ---------------      ----- ------------  ---------------
    56     16.974979   5 C  s                13    -12.520161   2 C  s         
   106     -6.012902   7 N  s               216     -5.038696  14 H  s         
   300      4.708937  18 H  s               529     -4.002784  31 H  s         
   387     -3.943931  24 C  s                65     -3.882929   5 C  pz        
    21     -3.613667   2 C  py              495      3.495289  29 H  s         

 Vector   88  Occ=0.000000D+00  E= 1.018407D-01
              MO Center= -9.8D-01,  9.9D-01,  1.6D+00, r^2= 3.9D+01
   Bfn.  Coefficient  Atom+Function         Bfn.  Coefficient  Atom+Function  
  ----- ------------  ---------------      ----- ------------  ---------------
    56     12.000840   5 C  s                13     -9.090997   2 C  s         
   622     -8.887221  36 H  s               300      7.818266  18 H  s         
   216     -4.516232  14 H  s               106     -4.284843   7 N  s         
   437     -3.646009  26 C  s               396      3.596313  24 C  pz        
   234      3.447407  15 C  py              495     -2.987249  29 H  s         

 Vector   89  Occ=0.000000D+00  E= 1.043555D-01
              MO Center= -1.3D+00,  5.4D-01,  6.5D-01, r^2= 3.2D+01
   Bfn.  Coefficient  Atom+Function         Bfn.  Coefficient  Atom+Function  
  ----- ------------  ---------------      ----- ------------  ---------------
   164      7.630760  10 H  s               539      6.938961  32 C  s         
   300     -5.901630  18 H  s               529     -4.534183  31 H  s         
   387     -4.171065  24 C  s               589     -3.301501  34 N  s         
   149     -2.798253   9 C  pz              394     -2.736621  24 C  px        
   547     -2.739616  32 C  py              368     -2.693929  22 H  s         

 Vector   90  Occ=0.000000D+00  E= 1.117715D-01
              MO Center=  3.8D-01, -1.6D+00,  7.2D-01, r^2= 3.5D+01
   Bfn.  Coefficient  Atom+Function         Bfn.  Coefficient  Atom+Function  
  ----- ------------  ---------------      ----- ------------  ---------------
    13     20.543604   2 C  s                56    -19.806693   5 C  s         
   300     10.276821  18 H  s                64      9.106404   5 C  py        
   164     -8.778643  10 H  s                65      7.148954   5 C  pz        
    21      5.662987   2 C  py              539      5.248339  32 C  s         
[...]
    13    -11.824313   2 C  s               318      9.460554  19 C  py        
   505     -8.620114  30 C  s               106      8.459263   7 N  s         
   437      8.350743  26 C  s                12     -8.032753   2 C  s         
   276      7.898541  17 N  s               147      7.343463   9 C  px        

 Vector  178  Occ=0.000000D+00  E= 4.377813D-01
              MO Center=  2.1D-01, -1.2D-01,  4.0D-01, r^2= 2.1D+01
   Bfn.  Coefficient  Atom+Function         Bfn.  Coefficient  Atom+Function  
  ----- ------------  ---------------      ----- ------------  ---------------
   539      8.344969  32 C  s               148      7.949063   9 C  py        
   173      7.959539  11 C  s               471      7.683826  28 N  s         
   276     -7.552042  17 N  s                12      6.760382   2 C  s         
    13      6.745976   2 C  s               437     -6.508433  26 C  s         
   319     -6.411288  19 C  pz              513      6.432667  30 C  py        

 Vector  179  Occ=0.000000D+00  E= 4.428331D-01
              MO Center= -1.6D-01, -7.9D-01, -5.0D-01, r^2= 2.0D+01
   Bfn.  Coefficient  Atom+Function         Bfn.  Coefficient  Atom+Function  
  ----- ------------  ---------------      ----- ------------  ---------------
   471    -13.614717  28 N  s               437     13.364545  26 C  s         
    56    -11.096083   5 C  s               174      9.713094  11 C  s         
   539      8.252907  32 C  s                13      7.587402   2 C  s         
   395     -7.302344  24 C  py              173      6.181642  11 C  s         
   233     -5.980732  15 C  px              528     -5.960588  31 H  s         

 Vector  180  Occ=0.000000D+00  E= 4.448315D-01
              MO Center=  2.6D-01, -1.2D+00, -2.0D-03, r^2= 2.4D+01
   Bfn.  Coefficient  Atom+Function         Bfn.  Coefficient  Atom+Function  
  ----- ------------  ---------------      ----- ------------  ---------------
    13     12.201851   2 C  s               318     -9.954977  19 C  py        
   284      9.485387  17 N  py              437      9.056358  26 C  s         
   395     -8.454864  24 C  py              106      6.956941   7 N  s         
   319     -6.949517  19 C  pz                2     -6.777889   1 H  s         
   513      6.655649  30 C  py              226     -6.576214  15 C  s         

 Vector  181  Occ=0.000000D+00  E= 4.459087D-01
              MO Center=  4.1D-01, -9.9D-01, -4.4D-01, r^2= 2.2D+01
   Bfn.  Coefficient  Atom+Function         Bfn.  Coefficient  Atom+Function  
  ----- ------------  ---------------      ----- ------------  ---------------
   539     15.717582  32 C  s               395    -10.398496  24 C  py        
    56     -8.867588   5 C  s               471     -7.343506  28 N  s         
   394     -7.300565  24 C  px              513     -6.608402  30 C  py        
   319     -6.451880  19 C  pz              226     -6.104407  15 C  s         
   310      5.891083  19 C  s               589     -5.810095  34 N  s         

 Vector  182  Occ=0.000000D+00  E= 4.508825D-01
              MO Center=  5.8D-01,  9.7D-02,  8.8D-02, r^2= 2.0D+01
   Bfn.  Coefficient  Atom+Function         Bfn.  Coefficient  Atom+Function  
  ----- ------------  ---------------      ----- ------------  ---------------
   234    -12.262198  15 C  py               13     11.802622   2 C  s         
   318     -9.362675  19 C  py               56     -9.160439   5 C  s         
   539      7.973504  32 C  s               276     -7.267168  17 N  s         
   235      6.571800  15 C  pz              226     -6.055421  15 C  s         
   163     -5.688258  10 H  s               106     -5.395242   7 N  s         

 Vector  183  Occ=0.000000D+00  E= 4.568073D-01
              MO Center=  5.1D-01, -1.1D+00, -2.6D-01, r^2= 2.2D+01
   Bfn.  Coefficient  Atom+Function         Bfn.  Coefficient  Atom+Function  
  ----- ------------  ---------------      ----- ------------  ---------------
    13     26.902321   2 C  s                56    -26.137353   5 C  s         
   412     -8.968733  25 N  s                64      8.784992   5 C  py        
   394      8.355500  24 C  px               45     -8.263241   4 H  s         
   437      7.634686  26 C  s               113     -7.301482   7 N  px        
   173      6.912007  11 C  s               395      6.934968  24 C  py        

 Vector  184  Occ=0.000000D+00  E= 4.596587D-01
              MO Center=  8.7D-01, -7.9D-01,  2.6D-01, r^2= 2.2D+01
   Bfn.  Coefficient  Atom+Function         Bfn.  Coefficient  Atom+Function  
  ----- ------------  ---------------      ----- ------------  ---------------
   471      8.295337  28 N  s               206     -6.185434  13 H  s         
   317     -5.854548  19 C  px              284      5.138764  17 N  py        
   207     -3.947666  13 H  s                64      3.901110   5 C  py        
   528     -3.872056  31 H  s                45      3.777193   4 H  s         
   106      3.747093   7 N  s               548     -3.425684  32 C  pz        

 Vector  185  Occ=0.000000D+00  E= 4.620408D-01
              MO Center=  7.0D-01, -7.6D-01, -2.1D-01, r^2= 1.9D+01
   Bfn.  Coefficient  Atom+Function         Bfn.  Coefficient  Atom+Function  
  ----- ------------  ---------------      ----- ------------  ---------------
   396     15.101583  24 C  pz              437    -12.608023  26 C  s         
   234      8.214671  15 C  py              513      8.100615  30 C  py        
   114     -6.768512   7 N  py              351     -6.072345  21 C  px        
   344     -5.773439  21 C  s               113     -5.408163   7 N  px        
    63     -5.371262   5 C  px              174      5.217331  11 C  s         

 Vector  186  Occ=0.000000D+00  E= 4.653730D-01
              MO Center=  4.9D-02,  5.1D-02, -7.4D-01, r^2= 2.0D+01
   Bfn.  Coefficient  Atom+Function         Bfn.  Coefficient  Atom+Function  
  ----- ------------  ---------------      ----- ------------  ---------------
   539     15.868549  32 C  s                56     14.664442   5 C  s         
   284    -12.174362  17 N  py              174    -11.135538  11 C  s         
    13    -10.940033   2 C  s               367     -9.393174  22 H  s         
   276     -9.177320  17 N  s               376     -8.899883  23 H  s         
   344      8.193221  21 C  s               226     -8.036534  15 C  s         

 Vector  187  Occ=0.000000D+00  E= 4.699628D-01
              MO Center= -5.8D-01, -3.0D-01,  2.0D-01, r^2= 2.1D+01
   Bfn.  Coefficient  Atom+Function         Bfn.  Coefficient  Atom+Function  
  ----- ------------  ---------------      ----- ------------  ---------------
    56     28.757928   5 C  s                13    -24.898911   2 C  s         
   539    -15.344585  32 C  s               437     14.754174  26 C  s         
    64     -9.161259   5 C  py              412     -8.191203  25 N  s         
    12     -7.325238   2 C  s               505     -7.076947  30 C  s         
     2      6.924706   1 H  s                65     -6.629061   5 C  pz        

 Vector  188  Occ=0.000000D+00  E= 4.719126D-01
              MO Center= -5.9D-01, -1.2D+00,  4.3D-03, r^2= 2.0D+01
   Bfn.  Coefficient  Atom+Function         Bfn.  Coefficient  Atom+Function  
  ----- ------------  ---------------      ----- ------------  ---------------
    13     13.789676   2 C  s               437     13.618413  26 C  s         
   396    -11.502999  24 C  pz              234     10.184916  15 C  py        
   147      9.890253   9 C  px              539     -9.900225  32 C  s         
   106      8.809890   7 N  s               471     -8.635811  28 N  s         
    64      7.358357   5 C  py              174     -6.930647  11 C  s         

 Vector  189  Occ=0.000000D+00  E= 4.784821D-01
              MO Center=  4.6D-02, -6.2D-01,  4.5D-02, r^2= 2.2D+01
   Bfn.  Coefficient  Atom+Function         Bfn.  Coefficient  Atom+Function  
  ----- ------------  ---------------      ----- ------------  ---------------
   437     11.601715  26 C  s               234     -9.794419  15 C  py        
   344      9.819992  21 C  s               149      9.306455   9 C  pz        
   319      8.877407  19 C  pz              174     -7.733374  11 C  s         
   147      6.909496   9 C  px              284     -6.469783  17 N  py        
   367     -6.361703  22 H  s               471     -6.325652  28 N  s         

 Vector  190  Occ=0.000000D+00  E= 4.803444D-01
              MO Center= -2.0D-01, -6.0D-01, -3.2D-04, r^2= 1.9D+01
   Bfn.  Coefficient  Atom+Function         Bfn.  Coefficient  Atom+Function  
  ----- ------------  ---------------      ----- ------------  ---------------
   387    -17.089606  24 C  s                13     15.589563   2 C  s         
    64     12.331412   5 C  py              471     10.259252  28 N  s         
   226     -9.057433  15 C  s               318     -8.891727  19 C  py        
   505     -7.185938  30 C  s               437      7.078389  26 C  s         
   174     -6.700914  11 C  s               148      6.461854   9 C  py        

 Vector  191  Occ=0.000000D+00  E= 4.875378D-01
              MO Center=  8.3D-01, -1.2D-02,  3.7D-01, r^2= 2.2D+01
   Bfn.  Coefficient  Atom+Function         Bfn.  Coefficient  Atom+Function  
  ----- ------------  ---------------      ----- ------------  ---------------
   539     26.141407  32 C  s               437    -19.167805  26 C  s         
    13    -13.613468   2 C  s               351    -12.916872  21 C  px        
   396     12.230440  24 C  pz               56     10.180265   5 C  s         
   310      9.866399  19 C  s               319     -9.893699  19 C  pz        
   197      6.921207  12 H  s               318     -6.440947  19 C  py        

 Vector  192  Occ=0.000000D+00  E= 4.899339D-01
              MO Center= -2.0D-01, -6.9D-01,  3.4D-01, r^2= 2.0D+01
   Bfn.  Coefficient  Atom+Function         Bfn.  Coefficient  Atom+Function  
  ----- ------------  ---------------      ----- ------------  ---------------
    56     27.535068   5 C  s                13    -21.599159   2 C  s         
   437    -10.885799  26 C  s                64    -10.560322   5 C  py        
   396     10.595562  24 C  pz              114      9.733810   7 N  py        
   206     -6.689518  13 H  s               310      6.582159  19 C  s         
    12     -6.527153   2 C  s               394     -6.015763  24 C  px        

 Vector  193  Occ=0.000000D+00  E= 4.962106D-01
              MO Center= -1.5D-02,  6.2D-02, -4.6D-03, r^2= 2.1D+01
   Bfn.  Coefficient  Atom+Function         Bfn.  Coefficient  Atom+Function  
  ----- ------------  ---------------      ----- ------------  ---------------
    56    -29.311130   5 C  s                13     26.910972   2 C  s         
   539     19.707559  32 C  s               106     13.939018   7 N  s         
   276     12.607773  17 N  s               174    -10.656699  11 C  s         
   226    -10.094306  15 C  s                64      9.494904   5 C  py        
   234     -9.079789  15 C  py              387     -7.879782  24 C  s         

 Vector  194  Occ=0.000000D+00  E= 5.002493D-01
              MO Center=  2.2D-01, -1.3D-02, -2.5D-01, r^2= 2.1D+01
   Bfn.  Coefficient  Atom+Function         Bfn.  Coefficient  Atom+Function  
  ----- ------------  ---------------      ----- ------------  ---------------
    13     18.831248   2 C  s               437    -15.092200  26 C  s         
    56    -14.489059   5 C  s               344    -10.495775  21 C  s         
   539     10.312467  32 C  s               396      8.753298  24 C  pz        
   412      8.386227  25 N  s               106      7.027208   7 N  s         
   173      6.911248  11 C  s                64      6.845132   5 C  py        


 center of mass
 --------------
 x =  -0.02489748 y =   0.07751726 z =  -0.01638355

 moments of inertia (a.u.)
 ------------------
        6411.196381756521          -0.000000000002           0.000000000001
          -0.000000000002        3257.797283005941          -0.000000000001
           0.000000000001          -0.000000000001        8255.311544606868

  Mulliken analysis of the total density
  --------------------------------------

    Atom       Charge   Shell Charges
 -----------   ------   -------------------------------------------------------
    1 H    1     0.80   0.76  0.07  0.01  0.03 -0.07
    2 C    6     6.53   2.01  0.66  0.35  0.29  2.07  0.99 -0.03  0.06  0.13
    3 H    1     0.98   0.77  0.24  0.01  0.03 -0.07
    4 H    1     0.81   0.76  0.08  0.00  0.03 -0.07
    5 C    6     4.98   2.01  0.68  0.11 -0.09  1.89  0.26 -0.14  0.24  0.01
    6 O    8     8.76   2.01  0.81  1.00  0.13  2.80  1.85  0.16  0.01 -0.01
    7 N    7     7.64   2.01  0.72  0.82 -0.05  2.45  1.43  0.16  0.05  0.04
    8 H    1     0.96   0.77  0.21 -0.02  0.05 -0.05
    9 C    6     6.70   2.01  0.66  0.22  0.03  2.00  1.43  0.03  0.14  0.19
   10 H    1     1.21   0.78  0.41  0.00  0.03 -0.01
   11 C    6     5.43   2.01  0.66  0.22  0.00  2.04  0.45 -0.02  0.07 -0.01
   12 H    1     0.98   0.77  0.27 -0.01  0.03 -0.08
   13 H    1     0.94   0.77  0.20  0.01  0.03 -0.07
   14 H    1     0.97   0.77  0.23  0.01  0.03 -0.07
   15 C    6     4.34   2.01  0.68 -0.04 -0.04  1.89  0.00  0.00  0.23 -0.41
   16 O    8     8.90   2.01  0.82  1.04  0.20  2.79  1.87  0.16  0.01  0.00
   17 N    7     7.27   2.01  0.72  0.82 -0.20  2.45  1.44 -0.04  0.05  0.03
   18 H    1     0.99   0.77  0.22 -0.02  0.05 -0.03
   19 C    6     6.06   2.01  0.66  0.15  0.02  1.99  1.13 -0.06  0.13  0.03
   20 H    1     1.23   0.78  0.40  0.00  0.03  0.02
   21 C    6     5.79   2.01  0.66  0.16  0.02  2.05  0.72  0.01  0.09  0.06
   22 H    1     0.93   0.78  0.17  0.00  0.03 -0.06
   23 H    1     0.95   0.78  0.23 -0.02  0.03 -0.07
   24 C    6     5.64   2.01  0.66  0.11 -0.12  1.99  0.57  0.14  0.15  0.14
   25 N    7     8.07   2.01  0.76  1.06  0.08  2.28  1.70  0.06  0.05  0.08
   26 C    6     5.05   2.01  0.66  0.02 -0.04  1.96  0.43  0.04  0.14 -0.18
   27 H    1     1.43   0.77  0.60  0.01  0.03  0.02
   28 N    7     7.53   2.01  0.73  0.94 -0.12  2.43  1.44 -0.04  0.06  0.09
   29 H    1     1.00   0.74  0.22 -0.01  0.05 -0.01
   30 C    6     4.94   2.01  0.66  0.03 -0.10  2.02  0.51 -0.08  0.11 -0.22
   31 H    1     1.47   0.77  0.64  0.04  0.03 -0.01
   32 C    6     4.87   2.01  0.68  0.07  0.16  1.90 -0.15  0.05  0.24 -0.08
   33 O    8     8.77   2.01  0.82  1.03  0.16  2.79  1.81  0.13  0.01 -0.00
   34 N    7     7.19   2.01  0.72  0.79 -0.17  2.47  1.26  0.11  0.04 -0.03
   35 H    1     1.03   0.76  0.25  0.00  0.05 -0.03
   36 H    1     0.86   0.73  0.19 -0.04  0.06 -0.08

       Multipole analysis of the density wrt the origin
       ------------------------------------------------

     L   x y z        total         open         nuclear
     -   - - -        -----         ----         -------
     0   0 0 0     -0.000000      0.000000    142.000000

     1   1 0 0     -0.541789      0.000000     -0.000000
     1   0 1 0     -2.517916      0.000000     -0.000000
     1   0 0 1      1.201055      0.000000     -0.000000

     2   2 0 0    -85.849312      0.000000   1386.743831
     2   1 1 0    -10.289011      0.000000    -28.118793
     2   1 0 1      2.621695      0.000000     17.431202
     2   0 2 0    -88.469192      0.000000   3101.518929
     2   0 1 1      6.116630      0.000000     12.943935
     2   0 0 2    -81.199732      0.000000    420.559991


 Task  times  cpu:     6060.6s     wall:     6416.9s


                                NWChem Input Module
                                -------------------


 Summary of allocated global arrays
-----------------------------------
  No active global arrays


MA_summarize_allocated_blocks: starting scan ...
MA_summarize_allocated_blocks: scan completed: 0 heap blocks, 0 stack blocks
MA usage statistics:

	allocation statistics:
					      heap	     stack
					      ----	     -----
	current number of blocks	         0	         0
	maximum number of blocks	        16	        14
	current total bytes		         0	         0
	maximum total bytes		    132872	  28811288
	maximum total K-bytes		       133	     28812
	maximum total M-bytes		         1	        29


                                     CITATION
                                     --------
                Please cite the following reference when publishing
                           results obtained with NWChem:

          E. Apra, E. J. Bylaska, W. A. de Jong, N. Govind, K. Kowalski,
       T. P. Straatsma, M. Valiev, H. J. J. van Dam, Y. Alexeev, J. Anchell,
       V. Anisimov, F. W. Aquino, R. Atta-Fynn, J. Autschbach, N. P. Bauman,
     J. C. Becca, D. E. Bernholdt, K. Bhaskaran-Nair, S. Bogatko, P. Borowski,
         J. Boschen, J. Brabec, A. Bruner, E. Cauet, Y. Chen, G. N. Chuev,
      C. J. Cramer, J. Daily, M. J. O. Deegan, T. H. Dunning Jr., M. Dupuis,
   K. G. Dyall, G. I. Fann, S. A. Fischer, A. Fonari, H. Fruchtl, L. Gagliardi,
      J. Garza, N. Gawande, S. Ghosh, K. Glaesemann, A. W. Gotz, J. Hammond,
       V. Helms, E. D. Hermes, K. Hirao, S. Hirata, M. Jacquelin, L. Jensen,
   B. G. Johnson, H. Jonsson, R. A. Kendall, M. Klemm, R. Kobayashi, V. Konkov,
      S. Krishnamoorthy, M. Krishnan, Z. Lin, R. D. Lins, R. J. Littlefield,
      A. J. Logsdail, K. Lopata, W. Ma, A. V. Marenich, J. Martin del Campo,
   D. Mejia-Rodriguez, J. E. Moore, J. M. Mullin, T. Nakajima, D. R. Nascimento,
    J. A. Nichols, P. J. Nichols, J. Nieplocha, A. Otero-de-la-Roza, B. Palmer,
    A. Panyala, T. Pirojsirikul, B. Peng, R. Peverati, J. Pittner, L. Pollack,
   R. M. Richard, P. Sadayappan, G. C. Schatz, W. A. Shelton, D. W. Silverstein,
   D. M. A. Smith, T. A. Soares, D. Song, M. Swart, H. L. Taylor, G. S. Thomas,
            V. Tipparaju, D. G. Truhlar, K. Tsemekhman, T. Van Voorhis,
      A. Vazquez-Mayagoitia, P. Verma, O. Villa, A. Vishnu, K. D. Vogiatzis,
        D. Wang, J. H. Weare, M. J. Williamson, T. L. Windus, K. Wolinski,
        A. T. Wong, Q. Wu, C. Yang, Q. Yu, M. Zacharias, Z. Zhang, Y. Zhao,
                                and R. J. Harrison
                        "NWChem: Past, present, and future
                         J. Chem. Phys. 152, 184102 (2020)
                               doi:10.1063/5.0004997

                                      AUTHORS
                                      -------
  E. Apra, E. J. Bylaska, N. Govind, K. Kowalski, M. Valiev, D. Mejia-Rodriguez,
       A. Kunitsa, N. P. Bauman, A. Panyala, W. A. de Jong, T. P. Straatsma,
   H. J. J. van Dam, D. Wang, T. L. Windus, J. Hammond, J. Autschbach, A. Woods,
    K. Bhaskaran-Nair, J. Brabec, K. Lopata, S. A. Fischer, S. Krishnamoorthy,
     M. Jacquelin, W. Ma, M. Klemm, O. Villa, Y. Chen, V. Anisimov, F. Aquino,
     S. Hirata, M. T. Hackler, E. Hermes, L. Jensen, J. E. Moore, J. C. Becca,
      V. Konjkov, T. Risthaus, M. Malagoli, A. Marenich, A. Otero-de-la-Roza,
        J. Mullin, P. Nichols, R. Peverati, J. Pittner, Y. Zhao, P.-D. Fan,
        A. Fonari, M. J. Williamson, R. J. Harrison, J. R. Rehr, M. Dupuis,
     D. Silverstein, D. M. A. Smith, J. Nieplocha, V. Tipparaju, M. Krishnan,
     B. E. Van Kuiken, A. Vazquez-Mayagoitia, M. Swart, Q. Wu, T. Van Voorhis,
     A. A. Auer, M. Nooijen, L. D. Crosby, E. Brown, G. Cisneros, G. I. Fann,
   H. Fruchtl, J. Garza, K. Hirao, R. A. Kendall, J. A. Nichols, K. Tsemekhman,
    K. Wolinski, J. Anchell, D. E. Bernholdt, P. Borowski, T. Clark, D. Clerc,
   H. Dachsel, M. J. O. Deegan, K. Dyall, D. Elwood, E. Glendening, M. Gutowski,
   A. C. Hess, J. Jaffe, B. G. Johnson, J. Ju, R. Kobayashi, R. Kutteh, Z. Lin,
   R. Littlefield, X. Long, B. Meng, T. Nakajima, S. Niu, L. Pollack, M. Rosing,
   K. Glaesemann, G. Sandrone, M. Stave, H. Taylor, G. Thomas, J. H. van Lenthe,
                               A. T. Wong, Z. Zhang.

 Total times  cpu:     6060.6s     wall:     6417.4s
