export TMOUT=5400
export TMPDIR=/tmp
export PTMPDIR=/tmp/ptmp
 argument  1 = ALA_TRP_3.nw
                                         
                                         


             Northwest Computational Chemistry Package (NWChem) 7.2.0
             --------------------------------------------------------


                    Environmental Molecular Sciences Laboratory
                       Pacific Northwest National Laboratory
                                Richland, WA 99352

                              Copyright (c) 1994-2022
                       Pacific Northwest National Laboratory
                            Battelle Memorial Institute

             NWChem is an open-source computational chemistry package
                        distributed under the terms of the
                      Educational Community License (ECL) 2.0
             A copy of the license is included with this distribution
                              in the LICENSE.TXT file

                                  ACKNOWLEDGMENT
                                  --------------

            This software and its documentation were developed at the
            EMSL at Pacific Northwest National Laboratory, a multiprogram
            national laboratory, operated for the U.S. Department of Energy
            by Battelle under Contract Number DE-AC05-76RL01830. Support
            for this work was provided by the Department of Energy Office
            of Biological and Environmental Research, Office of Basic
            Energy Sciences, and the Office of Advanced Scientific Computing.


           Job information
           ---------------

    hostname        = nova18-55
    program         = /opt/rit/el9/20230413/app/linux-rhel9-x86_64_v3/gcc-11.2.1/nwchem-7.2.0-oxtctbuhfuzyfaoziquq6bki22grib3g/bin/nwchem
    date            = Mon Jun 30 20:39:15 2025

    compiled        = Wed_May_17_23:46:39_2023
    source          = /tmp/root/spack-stage/spack-stage-nwchem-7.2.0-oxtctbuhfuzyfaoziquq6bki22grib3g/spack-src
    nwchem branch   = 7.2.0
    nwchem revision = d0d141fd
    ga revision     = 5.8.0
    use scalapack   = T
    input           = ALA_TRP_3.nw
    prefix          = ALA_TRP_3.
    data base       = ./ALA_TRP_3.db
    status          = startup
    nproc           =        1
    time left       =     -1s



           Memory information
           ------------------

    heap     =   26214394 doubles =    200.0 Mbytes
    stack    =   26214399 doubles =    200.0 Mbytes
    global   =   52428800 doubles =    400.0 Mbytes (distinct from heap & stack)
    total    =  104857593 doubles =    800.0 Mbytes
    verify   = yes
    hardfail = no 


           Directory information
           ---------------------

  0 permanent = .
  0 scratch   = .




                                NWChem Input Module
                                -------------------



 Scaling coordinates for geometry "geometry" by  1.889725989
 (inverse scale =  0.529177249)

 C1  symmetry detected

          ------
          auto-z
          ------
  no constraints, skipping    0.0000000000000000     
  no constraints, skipping    0.0000000000000000     


                             Geometry "geometry" -> ""
                             -------------------------

 Output coordinates in angstroms (scale by  1.889725989 to convert to a.u.)

  No.       Tag          Charge          X              Y              Z
 ---- ---------------- ---------- -------------- -------------- --------------
    1 H                    1.0000     3.64065958    -2.15955187     1.25116425
    2 C                    6.0000     2.56484468    -2.00027279     1.29430908
    3 H                    1.0000     2.18156609    -2.35390302     2.25092613
    4 H                    1.0000     2.07802774    -2.53638714     0.48290001
    5 C                    6.0000     2.27233367    -0.52497025     1.16621641
    6 O                    8.0000     1.73532910     0.08401158     2.08292914
    7 N                    7.0000     2.63238166     0.05384287     0.02300084
    8 H                    1.0000     3.04020058    -0.52883533    -0.68906294
    9 C                    6.0000     2.49638230     1.48406190    -0.27689864
   10 H                    1.0000     2.77249669     2.04043626     0.62001463
   11 C                    6.0000     3.51338975     1.83687990    -1.37368727
   12 H                    1.0000     3.49260023     2.91118147    -1.56099699
   13 H                    1.0000     4.51848523     1.55695897    -1.05528914
   14 H                    1.0000     3.26422974     1.31291286    -2.29806373
   15 C                    6.0000     1.04681520     1.90658746    -0.62304366
   16 O                    8.0000     0.80542552     2.56376061    -1.63437124
   17 N                    7.0000     0.06965606     1.51255418     0.19760839
   18 H                    1.0000     0.34561713     0.97777990     1.01567621
   19 C                    6.0000    -1.37520023     1.66293123    -0.04573100
   20 H                    1.0000    -1.55198322     1.40830993    -1.09079070
   21 C                    6.0000    -2.14250205     0.63922447     0.80833070
   22 H                    1.0000    -2.17535760     1.00989861     1.83493978
   23 H                    1.0000    -3.17086629     0.58697738     0.44933736
   24 C                    6.0000    -1.58642405    -0.75579733     0.83555990
   25 C                    6.0000    -1.22632716    -1.42596801     1.95279151
   26 H                    1.0000    -1.28579576    -1.02361530     2.95818237
   27 N                    7.0000    -0.78149027    -2.68854932     1.61886849
   28 H                    1.0000    -0.47915960    -3.36789341     2.30117837
   29 C                    6.0000    -0.81140804    -2.89233489     0.25615121
   30 C                    6.0000    -0.44719059    -3.97721903    -0.55416789
   31 H                    1.0000    -0.06359552    -4.88367774    -0.11355419
   32 C                    6.0000    -0.59531913    -3.86688832    -1.94720309
   33 H                    1.0000    -0.32482292    -4.69378147    -2.58993051
   34 C                    6.0000    -1.10462167    -2.68080539    -2.50551948
   35 H                    1.0000    -1.22118851    -2.60058482    -3.57801882
   36 C                    6.0000    -1.46909124    -1.59845727    -1.67972443
   37 H                    1.0000    -1.86192057    -0.69597552    -2.12378953
   38 C                    6.0000    -1.33151271    -1.67315820    -0.27662859
   39 C                    6.0000    -1.92483447     3.09847733     0.12763456
   40 O                    8.0000    -3.04211846     3.30297767     0.58976669
   41 N                    7.0000    -1.15929913     4.12659679    -0.20815558
   42 H                    1.0000    -1.52327560     5.05648613    -0.08735845
   43 H                    1.0000    -0.26975053     3.95240876    -0.65365173

      Atomic Mass 
      ----------- 

      H                  1.007825
      C                 12.000000
      O                 15.994910
      N                 14.003070


 Effective nuclear repulsion energy (a.u.)    2026.6848838398

            Nuclear Dipole moment (a.u.) 
            ----------------------------
        X                 Y               Z
 ---------------- ---------------- ----------------
    -0.0000000000     0.0000000000    -0.0000000000



                                Z-matrix (autoz)
                                -------- 

 Units are Angstrom for bonds and degrees for angles

      Type          Name      I     J     K     L     M      Value
      ----------- --------  ----- ----- ----- ----- ----- ----------
    1 Stretch                  1     2                       1.08840
    2 Stretch                  2     3                       1.08953
    3 Stretch                  2     4                       1.08756
    4 Stretch                  2     5                       1.50947
    5 Stretch                  5     6                       1.22458
    6 Stretch                  5     7                       1.33102
    7 Stretch                  7     8                       1.00641
    8 Stretch                  7     9                       1.46764
    9 Stretch                  9    10                       1.09098
   10 Stretch                  9    11                       1.53679
   11 Stretch                  9    15                       1.54906
   12 Stretch                 11    12                       1.09071
   13 Stretch                 11    13                       1.09085
   14 Stretch                 11    14                       1.09137
   15 Stretch                 15    16                       1.23001
   16 Stretch                 15    17                       1.33550
   17 Stretch                 17    18                       1.01557
   18 Stretch                 17    19                       1.47290
   19 Stretch                 19    20                       1.09006
   20 Stretch                 19    21                       1.53823
   21 Stretch                 19    39                       1.54691
   22 Stretch                 21    22                       1.09197
   23 Stretch                 21    23                       1.09048
   24 Stretch                 21    24                       1.50202
   25 Stretch                 24    25                       1.35167
   26 Stretch                 24    38                       1.46407
   27 Stretch                 25    26                       1.08454
   28 Stretch                 25    27                       1.37967
   29 Stretch                 27    28                       1.00919
   30 Stretch                 27    29                       1.37820
   31 Stretch                 29    30                       1.40223
   32 Stretch                 29    38                       1.42855
   33 Stretch                 30    31                       1.07840
   34 Stretch                 30    32                       1.40523
   35 Stretch                 32    33                       1.08167
   36 Stretch                 32    34                       1.40638
   37 Stretch                 34    35                       1.08179
   38 Stretch                 34    36                       1.40934
   39 Stretch                 36    37                       1.07981
   40 Stretch                 36    38                       1.41180
   41 Stretch                 39    40                       1.22626
   42 Stretch                 39    41                       1.32508
   43 Stretch                 41    42                       1.00587
   44 Stretch                 41    43                       1.01000
   45 Bend                     1     2     3               109.57395
   46 Bend                     1     2     4               109.92148
   47 Bend                     1     2     5               109.34229
   48 Bend                     2     5     6               120.49723
   49 Bend                     2     5     7               116.45470
   50 Bend                     3     2     4               109.73083
   51 Bend                     3     2     5               108.87854
   52 Bend                     4     2     5               109.37436
   53 Bend                     5     7     8               117.74523
   54 Bend                     5     7     9               125.04516
   55 Bend                     6     5     7               123.04760
   56 Bend                     7     9    10               107.78993
   57 Bend                     7     9    11               107.95319
   58 Bend                     7     9    15               113.46463
   59 Bend                     8     7     9               117.20511
   60 Bend                     9    11    12               109.63805
   61 Bend                     9    11    13               110.03085
   62 Bend                     9    11    14               110.07063
   63 Bend                     9    15    16               120.87080
   64 Bend                     9    15    17               117.83300
   65 Bend                    10     9    11               107.58771
   66 Bend                    10     9    15               106.34590
   67 Bend                    11     9    15               113.40142
   68 Bend                    12    11    13               108.68933
   69 Bend                    12    11    14               108.84879
   70 Bend                    13    11    14               109.53450
   71 Bend                    15    17    18               116.84205
   72 Bend                    15    17    19               125.88098
   73 Bend                    16    15    17               121.28421
   74 Bend                    17    19    20               107.07550
   75 Bend                    17    19    21               109.24747
   76 Bend                    17    19    39               115.13640
   77 Bend                    18    17    19               116.96212
   78 Bend                    19    21    22               108.12481
   79 Bend                    19    21    23               108.63337
   80 Bend                    19    21    24               116.32705
   81 Bend                    19    39    40               121.38134
   82 Bend                    19    39    41               119.10169
   83 Bend                    20    19    21               107.21464
   84 Bend                    20    19    39               105.46143
   85 Bend                    21    19    39               112.21826
   86 Bend                    21    24    25               125.03710
   87 Bend                    21    24    38               129.24506
   88 Bend                    22    21    23               107.30099
   89 Bend                    22    21    24               108.02122
   90 Bend                    23    21    24               108.09556
   91 Bend                    24    25    26               124.58902
   92 Bend                    24    25    27               109.85101
   93 Bend                    24    38    29               108.35023
   94 Bend                    24    38    36               134.81752
   95 Bend                    25    24    38               105.71477
   96 Bend                    25    27    28               123.29730
   97 Bend                    25    27    29               111.56943
   98 Bend                    26    25    27               125.55954
   99 Bend                    27    29    30               132.85548
  100 Bend                    27    29    38               104.50555
  101 Bend                    28    27    29               125.13273
  102 Bend                    29    30    31               120.43819
  103 Bend                    29    30    32               118.99546
  104 Bend                    29    38    36               116.82631
  105 Bend                    30    29    38               122.63852
  106 Bend                    30    32    33               120.17615
  107 Bend                    30    32    34               119.86344
  108 Bend                    31    30    32               120.56576
  109 Bend                    32    34    35               119.67892
  110 Bend                    32    34    36               120.57879
  111 Bend                    33    32    34               119.95920
  112 Bend                    34    36    37               119.66829
  113 Bend                    34    36    38               121.09728
  114 Bend                    35    34    36               119.74182
  115 Bend                    37    36    38               119.23436
  116 Bend                    39    41    42               118.54195
  117 Bend                    39    41    43               119.12991
  118 Bend                    40    39    41               119.50472
  119 Bend                    42    41    43               122.08024
  120 Torsion                  1     2     5     6        -116.89813
  121 Torsion                  1     2     5     7          62.86076
  122 Torsion                  2     5     7     8           2.25103
  123 Torsion                  2     5     7     9        -176.95355
  124 Torsion                  3     2     5     6           2.79045
  125 Torsion                  3     2     5     7        -177.45066
  126 Torsion                  4     2     5     6         122.68883
  127 Torsion                  4     2     5     7         -57.55228
  128 Torsion                  5     7     9    10          40.66376
  129 Torsion                  5     7     9    11         156.61141
  130 Torsion                  5     7     9    15         -76.82000
  131 Torsion                  6     5     7     8        -177.99682
  132 Torsion                  6     5     7     9           2.79860
  133 Torsion                  7     9    11    12        -175.41855
  134 Torsion                  7     9    11    13         -55.93155
  135 Torsion                  7     9    11    14          64.87362
  136 Torsion                  7     9    15    16        -129.66362
  137 Torsion                  7     9    15    17          49.09249
  138 Torsion                  8     7     9    10        -138.54471
  139 Torsion                  8     7     9    11         -22.59707
  140 Torsion                  8     7     9    15         103.97153
  141 Torsion                  9    15    17    18           1.59103
  142 Torsion                  9    15    17    19        -171.74050
  143 Torsion                 10     9    11    12         -59.33875
  144 Torsion                 10     9    11    13          60.14825
  145 Torsion                 10     9    11    14        -179.04657
  146 Torsion                 10     9    15    16         112.01533
  147 Torsion                 10     9    15    17         -69.22857
  148 Torsion                 11     9    15    16          -6.02177
  149 Torsion                 11     9    15    17         172.73434
  150 Torsion                 12    11     9    15          57.97595
  151 Torsion                 13    11     9    15         177.46294
  152 Torsion                 14    11     9    15         -61.73188
  153 Torsion                 15    17    19    20          42.21414
  154 Torsion                 15    17    19    21         158.01114
  155 Torsion                 15    17    19    39         -74.66977
  156 Torsion                 16    15    17    18        -179.65829
  157 Torsion                 16    15    17    19           7.01018
  158 Torsion                 17    19    21    22          77.53289
  159 Torsion                 17    19    21    23        -166.32503
  160 Torsion                 17    19    21    24         -44.14622
  161 Torsion                 17    19    39    40        -144.26418
  162 Torsion                 17    19    39    41          34.45562
  163 Torsion                 18    17    19    20        -131.11026
  164 Torsion                 18    17    19    21         -15.31326
  165 Torsion                 18    17    19    39         112.00582
  166 Torsion                 19    21    24    25         123.15859
  167 Torsion                 19    21    24    38         -57.57297
  168 Torsion                 19    39    41    42        -179.67797
  169 Torsion                 19    39    41    43           5.92113
  170 Torsion                 20    19    21    22        -166.75910
  171 Torsion                 20    19    21    23         -50.61701
  172 Torsion                 20    19    21    24          71.56180
  173 Torsion                 20    19    39    40          97.94080
  174 Torsion                 20    19    39    41         -83.33939
  175 Torsion                 21    19    39    40         -18.46168
  176 Torsion                 21    19    39    41         160.25813
  177 Torsion                 21    24    25    26          -0.92841
  178 Torsion                 21    24    25    27         178.84370
  179 Torsion                 21    24    38    29        -179.38330
  180 Torsion                 21    24    38    36           1.56659
  181 Torsion                 22    21    19    39         -51.41637
  182 Torsion                 22    21    24    25           1.42476
  183 Torsion                 22    21    24    38        -179.30680
  184 Torsion                 23    21    19    39          64.72571
  185 Torsion                 23    21    24    25        -114.38040
  186 Torsion                 23    21    24    38          64.88804
  187 Torsion                 24    21    19    39        -173.09547
  188 Torsion                 24    25    27    28        -178.76095
  189 Torsion                 24    25    27    29           0.98465
  190 Torsion                 24    38    29    27           0.56092
  191 Torsion                 24    38    29    30        -179.22347
  192 Torsion                 24    38    36    34         178.86103
  193 Torsion                 24    38    36    37          -1.23587
  194 Torsion                 25    24    38    29          -0.00554
  195 Torsion                 25    24    38    36        -179.05565
  196 Torsion                 25    27    29    30         178.81942
  197 Torsion                 25    27    29    38          -0.93291
  198 Torsion                 26    25    24    38         179.66013
  199 Torsion                 26    25    27    28           1.00844
  200 Torsion                 26    25    27    29        -179.24596
  201 Torsion                 27    25    24    38          -0.56775
  202 Torsion                 27    29    30    31           0.65764
  203 Torsion                 27    29    30    32        -179.62120
  204 Torsion                 27    29    38    36         179.80586
  205 Torsion                 28    27    29    30          -1.44058
  206 Torsion                 28    27    29    38         178.80709
  207 Torsion                 29    30    32    33        -179.70304
  208 Torsion                 29    30    32    34          -0.10353
  209 Torsion                 29    38    36    34          -0.12865
  210 Torsion                 29    38    36    37         179.77445
  211 Torsion                 30    29    38    36           0.02147
  212 Torsion                 30    32    34    35        -179.75198
  213 Torsion                 30    32    34    36          -0.00115
  214 Torsion                 31    30    29    38        -179.62710
  215 Torsion                 31    30    32    33           0.01775
  216 Torsion                 31    30    32    34         179.61726
  217 Torsion                 32    30    29    38           0.09406
  218 Torsion                 32    34    36    37        -179.78127
  219 Torsion                 32    34    36    38           0.12142
  220 Torsion                 33    32    34    35          -0.15159
  221 Torsion                 33    32    34    36         179.59924
  222 Torsion                 35    34    36    37          -0.03059
  223 Torsion                 35    34    36    38         179.87210
  224 Torsion                 40    39    41    42          -0.93375
  225 Torsion                 40    39    41    43        -175.33465


            XYZ format geometry
            -------------------
    43
 geometry
 H                     3.64065958    -2.15955187     1.25116425
 C                     2.56484468    -2.00027279     1.29430908
 H                     2.18156609    -2.35390302     2.25092613
 H                     2.07802774    -2.53638714     0.48290001
 C                     2.27233367    -0.52497025     1.16621641
 O                     1.73532910     0.08401158     2.08292914
 N                     2.63238166     0.05384287     0.02300084
 H                     3.04020058    -0.52883533    -0.68906294
 C                     2.49638230     1.48406190    -0.27689864
 H                     2.77249669     2.04043626     0.62001463
 C                     3.51338975     1.83687990    -1.37368727
 H                     3.49260023     2.91118147    -1.56099699
 H                     4.51848523     1.55695897    -1.05528914
 H                     3.26422974     1.31291286    -2.29806373
 C                     1.04681520     1.90658746    -0.62304366
 O                     0.80542552     2.56376061    -1.63437124
 N                     0.06965606     1.51255418     0.19760839
 H                     0.34561713     0.97777990     1.01567621
 C                    -1.37520023     1.66293123    -0.04573100
 H                    -1.55198322     1.40830993    -1.09079070
 C                    -2.14250205     0.63922447     0.80833070
 H                    -2.17535760     1.00989861     1.83493978
 H                    -3.17086629     0.58697738     0.44933736
 C                    -1.58642405    -0.75579733     0.83555990
 C                    -1.22632716    -1.42596801     1.95279151
 H                    -1.28579576    -1.02361530     2.95818237
 N                    -0.78149027    -2.68854932     1.61886849
 H                    -0.47915960    -3.36789341     2.30117837
 C                    -0.81140804    -2.89233489     0.25615121
 C                    -0.44719059    -3.97721903    -0.55416789
 H                    -0.06359552    -4.88367774    -0.11355419
 C                    -0.59531913    -3.86688832    -1.94720309
 H                    -0.32482292    -4.69378147    -2.58993051
 C                    -1.10462167    -2.68080539    -2.50551948
 H                    -1.22118851    -2.60058482    -3.57801882
 C                    -1.46909124    -1.59845727    -1.67972443
 H                    -1.86192057    -0.69597552    -2.12378953
 C                    -1.33151271    -1.67315820    -0.27662859
 C                    -1.92483447     3.09847733     0.12763456
 O                    -3.04211846     3.30297767     0.58976669
 N                    -1.15929913     4.12659679    -0.20815558
 H                    -1.52327560     5.05648613    -0.08735845
 H                    -0.26975053     3.95240876    -0.65365173

 ==============================================================================
                                internuclear distances
 ------------------------------------------------------------------------------
       center one      |      center two      | atomic units |  angstroms
 ------------------------------------------------------------------------------
    2 C                |   1 H                |     2.05677  |     1.08840
    3 H                |   2 C                |     2.05891  |     1.08953
    4 H                |   2 C                |     2.05520  |     1.08756
    5 C                |   2 C                |     2.85248  |     1.50947
    6 O                |   5 C                |     2.31412  |     1.22458
    7 N                |   5 C                |     2.51525  |     1.33102
    8 H                |   7 N                |     1.90184  |     1.00641
    9 C                |   7 N                |     2.77343  |     1.46764
   10 H                |   9 C                |     2.06166  |     1.09098
   11 C                |   9 C                |     2.90412  |     1.53679
   12 H                |  11 C                |     2.06114  |     1.09071
   13 H                |  11 C                |     2.06140  |     1.09085
   14 H                |  11 C                |     2.06240  |     1.09137
   15 C                |   9 C                |     2.92730  |     1.54906
   16 O                |  15 C                |     2.32439  |     1.23001
   17 N                |  15 C                |     2.52374  |     1.33550
   18 H                |  17 N                |     1.91914  |     1.01557
   19 C                |  17 N                |     2.78338  |     1.47290
   20 H                |  19 C                |     2.05992  |     1.09006
   21 C                |  19 C                |     2.90683  |     1.53823
   22 H                |  21 C                |     2.06353  |     1.09197
   23 H                |  21 C                |     2.06070  |     1.09048
   24 C                |  21 C                |     2.83840  |     1.50202
   25 C                |  24 C                |     2.55428  |     1.35167
   26 H                |  25 C                |     2.04949  |     1.08454
   27 N                |  25 C                |     2.60720  |     1.37967
   28 H                |  27 N                |     1.90709  |     1.00919
   29 C                |  27 N                |     2.60441  |     1.37820
   30 C                |  29 C                |     2.64983  |     1.40223
   31 H                |  30 C                |     2.03789  |     1.07840
   32 C                |  30 C                |     2.65549  |     1.40523
   33 H                |  32 C                |     2.04407  |     1.08167
   34 C                |  32 C                |     2.65767  |     1.40638
   35 H                |  34 C                |     2.04429  |     1.08179
   36 C                |  34 C                |     2.66328  |     1.40934
   37 H                |  36 C                |     2.04054  |     1.07981
   38 C                |  24 C                |     2.76669  |     1.46407
   38 C                |  29 C                |     2.69957  |     1.42855
   38 C                |  36 C                |     2.66792  |     1.41180
   39 C                |  19 C                |     2.92325  |     1.54691
   40 O                |  39 C                |     2.31729  |     1.22626
   41 N                |  39 C                |     2.50403  |     1.32508
   42 H                |  41 N                |     1.90081  |     1.00587
   43 H                |  41 N                |     1.90863  |     1.01000
 ------------------------------------------------------------------------------
                         number of included internuclear distances:         44
 ==============================================================================



 ==============================================================================
                                 internuclear angles
 ------------------------------------------------------------------------------
        center 1       |       center 2       |       center 3       |  degrees
 ------------------------------------------------------------------------------
    1 H                |   2 C                |   3 H                |   109.57
    1 H                |   2 C                |   4 H                |   109.92
    1 H                |   2 C                |   5 C                |   109.34
    3 H                |   2 C                |   4 H                |   109.73
    3 H                |   2 C                |   5 C                |   108.88
    4 H                |   2 C                |   5 C                |   109.37
    2 C                |   5 C                |   6 O                |   120.50
    2 C                |   5 C                |   7 N                |   116.45
    6 O                |   5 C                |   7 N                |   123.05
    5 C                |   7 N                |   8 H                |   117.75
    5 C                |   7 N                |   9 C                |   125.05
    8 H                |   7 N                |   9 C                |   117.21
    7 N                |   9 C                |  10 H                |   107.79
    7 N                |   9 C                |  11 C                |   107.95
    7 N                |   9 C                |  15 C                |   113.46
   10 H                |   9 C                |  11 C                |   107.59
   10 H                |   9 C                |  15 C                |   106.35
   11 C                |   9 C                |  15 C                |   113.40
    9 C                |  11 C                |  12 H                |   109.64
    9 C                |  11 C                |  13 H                |   110.03
    9 C                |  11 C                |  14 H                |   110.07
   12 H                |  11 C                |  13 H                |   108.69
   12 H                |  11 C                |  14 H                |   108.85
   13 H                |  11 C                |  14 H                |   109.53
    9 C                |  15 C                |  16 O                |   120.87
    9 C                |  15 C                |  17 N                |   117.83
   16 O                |  15 C                |  17 N                |   121.28
   15 C                |  17 N                |  18 H                |   116.84
   15 C                |  17 N                |  19 C                |   125.88
   18 H                |  17 N                |  19 C                |   116.96
   17 N                |  19 C                |  20 H                |   107.08
   17 N                |  19 C                |  21 C                |   109.25
   17 N                |  19 C                |  39 C                |   115.14
   20 H                |  19 C                |  21 C                |   107.21
   20 H                |  19 C                |  39 C                |   105.46
   21 C                |  19 C                |  39 C                |   112.22
   19 C                |  21 C                |  22 H                |   108.12
   19 C                |  21 C                |  23 H                |   108.63
   19 C                |  21 C                |  24 C                |   116.33
   22 H                |  21 C                |  23 H                |   107.30
   22 H                |  21 C                |  24 C                |   108.02
   23 H                |  21 C                |  24 C                |   108.10
   21 C                |  24 C                |  25 C                |   125.04
   21 C                |  24 C                |  38 C                |   129.25
   25 C                |  24 C                |  38 C                |   105.71
   24 C                |  25 C                |  26 H                |   124.59
   24 C                |  25 C                |  27 N                |   109.85
   26 H                |  25 C                |  27 N                |   125.56
   25 C                |  27 N                |  28 H                |   123.30
   25 C                |  27 N                |  29 C                |   111.57
   28 H                |  27 N                |  29 C                |   125.13
   27 N                |  29 C                |  30 C                |   132.86
   27 N                |  29 C                |  38 C                |   104.51
   30 C                |  29 C                |  38 C                |   122.64
   29 C                |  30 C                |  31 H                |   120.44
   29 C                |  30 C                |  32 C                |   119.00
   31 H                |  30 C                |  32 C                |   120.57
   30 C                |  32 C                |  33 H                |   120.18
   30 C                |  32 C                |  34 C                |   119.86
   33 H                |  32 C                |  34 C                |   119.96
   32 C                |  34 C                |  35 H                |   119.68
   32 C                |  34 C                |  36 C                |   120.58
   35 H                |  34 C                |  36 C                |   119.74
   34 C                |  36 C                |  37 H                |   119.67
   34 C                |  36 C                |  38 C                |   121.10
   37 H                |  36 C                |  38 C                |   119.23
   24 C                |  38 C                |  29 C                |   108.35
   24 C                |  38 C                |  36 C                |   134.82
   29 C                |  38 C                |  36 C                |   116.83
   19 C                |  39 C                |  40 O                |   121.38
   19 C                |  39 C                |  41 N                |   119.10
   40 O                |  39 C                |  41 N                |   119.50
   39 C                |  41 N                |  42 H                |   118.54
   39 C                |  41 N                |  43 H                |   119.13
   42 H                |  41 N                |  43 H                |   122.08
 ------------------------------------------------------------------------------
                            number of included internuclear angles:         75
 ==============================================================================



  library name resolved from: environment
  library file name is: </opt/rit/el9/20230413/app/linux-rhel9-x86_64_v3/gcc-11.2.1/nwchem-7.2.0-oxtctbuhfuzyfaoziquq6bki22grib3g/share/nwchem/libraries/>
  


 Summary of "ao basis" -> "" (cartesian)
 ------------------------------------------------------------------------------
       Tag                 Description            Shells   Functions and Types
 ---------------- ------------------------------  ------  ---------------------
 *                        aug-cc-pvdz                 on all atoms 


                      Basis "ao basis" -> "ao basis" (cartesian)
                      -----
  H (Hydrogen)
  ------------
            Exponent  Coefficients 
       -------------- ---------------------------------------------------------
  1 S  1.30100000E+01  0.019685
  1 S  1.96200000E+00  0.137977
  1 S  4.44600000E-01  0.478148

  2 S  1.22000000E-01  1.000000

  3 S  2.97400000E-02  1.000000

  4 P  7.27000000E-01  1.000000

  5 P  1.41000000E-01  1.000000

  C (Carbon)
  ----------
            Exponent  Coefficients 
       -------------- ---------------------------------------------------------
  1 S  6.66500000E+03  0.000692
  1 S  1.00000000E+03  0.005329
  1 S  2.28000000E+02  0.027077
  1 S  6.47100000E+01  0.101718
  1 S  2.10600000E+01  0.274740
  1 S  7.49500000E+00  0.448564
  1 S  2.79700000E+00  0.285074
  1 S  5.21500000E-01  0.015204

  2 S  6.66500000E+03 -0.000146
  2 S  1.00000000E+03 -0.001154
  2 S  2.28000000E+02 -0.005725
  2 S  6.47100000E+01 -0.023312
  2 S  2.10600000E+01 -0.063955
  2 S  7.49500000E+00 -0.149981
  2 S  2.79700000E+00 -0.127262
  2 S  5.21500000E-01  0.544529

  3 S  1.59600000E-01  1.000000

  4 S  4.69000000E-02  1.000000

  5 P  9.43900000E+00  0.038109
  5 P  2.00200000E+00  0.209480
  5 P  5.45600000E-01  0.508557

  6 P  1.51700000E-01  1.000000

  7 P  4.04100000E-02  1.000000

  8 D  5.50000000E-01  1.000000

  9 D  1.51000000E-01  1.000000

  O (Oxygen)
  ----------
            Exponent  Coefficients 
       -------------- ---------------------------------------------------------
  1 S  1.17200000E+04  0.000710
  1 S  1.75900000E+03  0.005470
  1 S  4.00800000E+02  0.027837
  1 S  1.13700000E+02  0.104800
  1 S  3.70300000E+01  0.283062
  1 S  1.32700000E+01  0.448719
  1 S  5.02500000E+00  0.270952
  1 S  1.01300000E+00  0.015458

  2 S  1.17200000E+04 -0.000160
  2 S  1.75900000E+03 -0.001263
  2 S  4.00800000E+02 -0.006267
  2 S  1.13700000E+02 -0.025716
  2 S  3.70300000E+01 -0.070924
  2 S  1.32700000E+01 -0.165411
  2 S  5.02500000E+00 -0.116955
  2 S  1.01300000E+00  0.557368

  3 S  3.02300000E-01  1.000000

  4 S  7.89600000E-02  1.000000

  5 P  1.77000000E+01  0.043018
  5 P  3.85400000E+00  0.228913
  5 P  1.04600000E+00  0.508728

  6 P  2.75300000E-01  1.000000

  7 P  6.85600000E-02  1.000000

  8 D  1.18500000E+00  1.000000

  9 D  3.32000000E-01  1.000000

  N (Nitrogen)
  ------------
            Exponent  Coefficients 
       -------------- ---------------------------------------------------------
  1 S  9.04600000E+03  0.000700
  1 S  1.35700000E+03  0.005389
  1 S  3.09300000E+02  0.027406
  1 S  8.77300000E+01  0.103207
  1 S  2.85600000E+01  0.278723
  1 S  1.02100000E+01  0.448540
  1 S  3.83800000E+00  0.278238
  1 S  7.46600000E-01  0.015440

  2 S  9.04600000E+03 -0.000153
  2 S  1.35700000E+03 -0.001208
  2 S  3.09300000E+02 -0.005992
  2 S  8.77300000E+01 -0.024544
  2 S  2.85600000E+01 -0.067459
  2 S  1.02100000E+01 -0.158078
  2 S  3.83800000E+00 -0.121831
  2 S  7.46600000E-01  0.549003

  3 S  2.24800000E-01  1.000000

  4 S  6.12400000E-02  1.000000

  5 P  1.35500000E+01  0.039919
  5 P  2.91700000E+00  0.217169
  5 P  7.97300000E-01  0.510319

  6 P  2.18500000E-01  1.000000

  7 P  5.61100000E-02  1.000000

  8 D  8.17000000E-01  1.000000

  9 D  2.30000000E-01  1.000000



 Summary of "ao basis" -> "ao basis" (cartesian)
 ------------------------------------------------------------------------------
       Tag                 Description            Shells   Functions and Types
 ---------------- ------------------------------  ------  ---------------------
 H                        aug-cc-pvdz                5        9   3s2p
 C                        aug-cc-pvdz                9       25   4s3p2d
 O                        aug-cc-pvdz                9       25   4s3p2d
 N                        aug-cc-pvdz                9       25   4s3p2d


                                 NWChem SCF Module
                                 -----------------



  ao basis        = "ao basis"
  functions       =   755
  atoms           =    43
  closed shells   =    84
  open shells     =     0
  charge          =   0.00
  wavefunction    = RHF 
  input vectors   = atomic
  output vectors  = ./ALA_TRP_3.movecs
  use symmetry    = F
  symmetry adapt  = F


 Summary of "ao basis" -> "ao basis" (cartesian)
 ------------------------------------------------------------------------------
       Tag                 Description            Shells   Functions and Types
 ---------------- ------------------------------  ------  ---------------------
 H                        aug-cc-pvdz                5        9   3s2p
 C                        aug-cc-pvdz                9       25   4s3p2d
 O                        aug-cc-pvdz                9       25   4s3p2d
 N                        aug-cc-pvdz                9       25   4s3p2d



 Forming initial guess at       1.4s


 !! The overlap matrix has  18 vectors deemed linearly dependent with
    eigenvalues:
 2.13D-07 8.94D-07 1.01D-06 1.32D-06 1.58D-06 1.80D-06 2.14D-06 2.47D-06
 2.58D-06 2.68D-06 3.13D-06 4.51D-06 4.95D-06 6.41D-06 6.90D-06 7.51D-06
 8.26D-06 8.64D-06


      Superposition of Atomic Density Guess
      -------------------------------------

 Sum of atomic energies:       -1054.17033381

      Non-variational initial energy
      ------------------------------

 Total energy =   -1070.164118
 1-e energy   =   -5459.223485
 2-e energy   =    2362.374483
 HOMO         =      -0.236651
 LUMO         =      -0.030822


 Starting SCF solution at    1772.6s



 ----------------------------------------------
         Quadratically convergent ROHF

 Convergence threshold     :          1.000E-04
 Maximum no. of iterations :           30
 Final Fock-matrix accuracy:          1.000E-10
 ----------------------------------------------


              iter       energy          gnorm     gmax       time
             ----- ------------------- --------- --------- --------
                 1    -1059.6794376331  2.55D+00  1.19D-01   3633.8
                 2    -1060.0479429788  9.62D-01  4.47D-02   7348.2
                 3    -1060.1260697418  6.68D-02  4.29D-03  12693.7
                 4    -1060.1267480471  2.21D-03  1.97D-04  21526.6
                 5    -1060.1267489042  6.18D-06  7.16D-07  35612.9


       Final RHF  results 
       ------------------ 

         Total SCF energy =  -1060.126748904152
      One-electron energy =  -5475.494358447104
      Two-electron energy =   2388.682725703158
 Nuclear repulsion energy =   2026.684883839794

        Time for solution =  33848.7s


             Final eigenvalues
             -----------------

              1      
    1  -20.5430
    2  -20.5375
    3  -20.5101
    4  -15.6172
    5  -15.6168
    6  -15.5939
    7  -15.5725
    8  -11.3726
    9  -11.3663
   10  -11.3454
   11  -11.3099
   12  -11.2941
   13  -11.2860
   14  -11.2786
   15  -11.2534
   16  -11.2512
   17  -11.2500
   18  -11.2494
   19  -11.2475
   20  -11.2445
   21  -11.2431
   22  -11.2399
   23  -11.2346
   24   -1.4091
   25   -1.3967
   26   -1.3717
   27   -1.3051
   28   -1.2656
   29   -1.2419
   30   -1.2008
   31   -1.1358
   32   -1.0939
   33   -1.0707
   34   -1.0299
   35   -1.0048
   36   -1.0039
   37   -0.9905
   38   -0.9148
   39   -0.8876
   40   -0.8531
   41   -0.8267
   42   -0.8153
   43   -0.8034
   44   -0.7796
   45   -0.7636
   46   -0.7375
   47   -0.7292
   48   -0.7210
   49   -0.6992
   50   -0.6858
   51   -0.6787
   52   -0.6670
   53   -0.6605
   54   -0.6529
   55   -0.6313
   56   -0.6139
   57   -0.6041
   58   -0.6002
   59   -0.5973
   60   -0.5948
   61   -0.5894
   62   -0.5844
   63   -0.5735
   64   -0.5682
   65   -0.5609
   66   -0.5493
   67   -0.5452
   68   -0.5427
   69   -0.5396
   70   -0.5336
   71   -0.5217
   72   -0.5181
   73   -0.4991
   74   -0.4760
   75   -0.4714
   76   -0.4567
   77   -0.4399
   78   -0.4328
   79   -0.4062
   80   -0.3942
   81   -0.3841
   82   -0.3821
   83   -0.3088
   84   -0.2909
   85    0.0221
   86    0.0307
   87    0.0349
   88    0.0400
   89    0.0454
   90    0.0493
   91    0.0521
   92    0.0548
   93    0.0578
   94    0.0659

                       ROHF Final Molecular Orbital Analysis
                       -------------------------------------

 Vector   24  Occ=2.000000D+00  E=-1.409060D+00
              MO Center=  1.8D+00,  2.1D-01,  1.2D+00, r^2= 2.5D+00
   Bfn.  Coefficient  Atom+Function         Bfn.  Coefficient  Atom+Function  
  ----- ------------  ---------------      ----- ------------  ---------------
    80      0.335742   6 O  s                79      0.323895   6 O  s         
    54      0.228885   5 C  s         

 Vector   25  Occ=2.000000D+00  E=-1.396745D+00
              MO Center=  8.8D-01,  2.0D+00, -7.6D-01, r^2= 2.9D+00
   Bfn.  Coefficient  Atom+Function         Bfn.  Coefficient  Atom+Function  
  ----- ------------  ---------------      ----- ------------  ---------------
   250      0.350403  16 O  s               249      0.329507  16 O  s         
   224      0.221874  15 C  s         

 Vector   26  Occ=2.000000D+00  E=-1.371656D+00
              MO Center= -2.4D+00,  3.3D+00,  3.3D-01, r^2= 1.2D+00
   Bfn.  Coefficient  Atom+Function         Bfn.  Coefficient  Atom+Function  
  ----- ------------  ---------------      ----- ------------  ---------------
   690      0.371375  40 O  s               689      0.348999  40 O  s         
   664      0.243621  39 C  s         

 Vector   27  Occ=2.000000D+00  E=-1.305059D+00
              MO Center= -9.2D-01, -2.4D+00,  1.3D+00, r^2= 1.3D+00
   Bfn.  Coefficient  Atom+Function         Bfn.  Coefficient  Atom+Function  
  ----- ------------  ---------------      ----- ------------  ---------------
   445      0.487444  27 N  s               444      0.333067  27 N  s         
   478      0.173138  29 C  s               410      0.163814  25 C  s         

 Vector   28  Occ=2.000000D+00  E=-1.265650D+00
              MO Center=  2.4D+00,  2.4D-01,  2.9D-01, r^2= 2.0D+00
   Bfn.  Coefficient  Atom+Function         Bfn.  Coefficient  Atom+Function  
  ----- ------------  ---------------      ----- ------------  ---------------
   105      0.390905   7 N  s               104      0.335541   7 N  s         
    80     -0.222016   6 O  s                79     -0.181717   6 O  s         
    59     -0.177899   5 C  pz              128      0.154244   8 H  s         

 Vector   29  Occ=2.000000D+00  E=-1.241937D+00
              MO Center=  9.3D-02,  1.6D+00, -4.0D-02, r^2= 2.4D+00
   Bfn.  Coefficient  Atom+Function         Bfn.  Coefficient  Atom+Function  
  ----- ------------  ---------------      ----- ------------  ---------------
   275      0.382708  17 N  s               274      0.333088  17 N  s         
   250     -0.202452  16 O  s               249     -0.158743  16 O  s         
   309     -0.154908  19 C  s         

 Vector   30  Occ=2.000000D+00  E=-1.200758D+00
              MO Center= -1.4D+00,  3.8D+00, -8.0D-02, r^2= 1.6D+00
   Bfn.  Coefficient  Atom+Function         Bfn.  Coefficient  Atom+Function  
  ----- ------------  ---------------      ----- ------------  ---------------
   715      0.395487  41 N  s               714      0.367415  41 N  s         
   690     -0.209494  40 O  s               667      0.174382  39 C  px        
   689     -0.175054  40 O  s               747      0.164718  43 H  s         
   738      0.157525  42 H  s               309     -0.151675  19 C  s         
   671     -0.150562  39 C  py        

 Vector   31  Occ=2.000000D+00  E=-1.135814D+00
              MO Center= -9.5D-01, -2.8D+00, -1.0D+00, r^2= 2.9D+00
   Bfn.  Coefficient  Atom+Function         Bfn.  Coefficient  Atom+Function  
  ----- ------------  ---------------      ----- ------------  ---------------
   445      0.252932  27 N  s               537     -0.186424  32 C  s         
   571     -0.183842  34 C  s               605     -0.178009  36 C  s         
   503     -0.168676  30 C  s               639     -0.152876  38 C  s         

 Vector   32  Occ=2.000000D+00  E=-1.093895D+00
              MO Center= -1.1D+00, -5.0D-01,  5.4D-01, r^2= 5.7D+00
   Bfn.  Coefficient  Atom+Function         Bfn.  Coefficient  Atom+Function  
  ----- ------------  ---------------      ----- ------------  ---------------
   385      0.225507  24 C  s               342      0.202013  21 C  s         
   445     -0.156502  27 N  s               505      0.154686  30 C  s         

 Vector   33  Occ=2.000000D+00  E=-1.070699D+00
              MO Center=  2.2D+00,  4.2D-01, -4.1D-02, r^2= 6.3D+00
   Bfn.  Coefficient  Atom+Function         Bfn.  Coefficient  Atom+Function  
  ----- ------------  ---------------      ----- ------------  ---------------
   138      0.232462   9 C  s               172      0.190506  11 C  s         
    12     -0.177492   2 C  s               144      0.165276   9 C  px        
   225      0.163022  15 C  s         

 Vector   34  Occ=2.000000D+00  E=-1.029898D+00
              MO Center= -8.4D-01, -3.4D-01, -1.2D-01, r^2= 8.4D+00
   Bfn.  Coefficient  Atom+Function         Bfn.  Coefficient  Atom+Function  
  ----- ------------  ---------------      ----- ------------  ---------------
   308      0.199678  19 C  s               342      0.161591  21 C  s         
   505     -0.156384  30 C  s         

 Vector   35  Occ=2.000000D+00  E=-1.004752D+00
              MO Center=  7.6D-01, -1.8D+00, -7.5D-02, r^2= 9.0D+00
   Bfn.  Coefficient  Atom+Function         Bfn.  Coefficient  Atom+Function  
  ----- ------------  ---------------      ----- ------------  ---------------
    11      0.219046   2 C  s               573      0.205871  34 C  s         
   505     -0.180309  30 C  s               571     -0.170647  34 C  s         
   478      0.152123  29 C  s         

 Vector   36  Occ=2.000000D+00  E=-1.003891D+00
              MO Center=  9.4D-01, -1.7D+00,  4.5D-03, r^2= 9.2D+00
   Bfn.  Coefficient  Atom+Function         Bfn.  Coefficient  Atom+Function  
  ----- ------------  ---------------      ----- ------------  ---------------
    11      0.226465   2 C  s               505      0.177889  30 C  s         
   573     -0.175070  34 C  s               571      0.159744  34 C  s         
   478     -0.153200  29 C  s         

 Vector   37  Occ=2.000000D+00  E=-9.904595D-01
              MO Center= -9.7D-01, -1.5D+00, -2.5D-01, r^2= 7.6D+00
   Bfn.  Coefficient  Atom+Function         Bfn.  Coefficient  Atom+Function  
  ----- ------------  ---------------      ----- ------------  ---------------
   539      0.227084  32 C  s               607     -0.213415  36 C  s         
   605      0.175554  36 C  s               410     -0.170669  25 C  s         
   537     -0.166757  32 C  s         

 Vector   38  Occ=2.000000D+00  E=-9.148328D-01
              MO Center=  4.1D-01,  7.6D-01,  1.0D-02, r^2= 1.0D+01
   Bfn.  Coefficient  Atom+Function         Bfn.  Coefficient  Atom+Function  
  ----- ------------  ---------------      ----- ------------  ---------------
   139      0.241525   9 C  s               144     -0.228047   9 C  px        
   342      0.202472  21 C  s               172     -0.182194  11 C  s         
   225     -0.170579  15 C  s         

 Vector   39  Occ=2.000000D+00  E=-8.875908D-01
              MO Center=  4.8D-01,  1.3D+00, -1.3D-01, r^2= 1.0D+01
   Bfn.  Coefficient  Atom+Function         Bfn.  Coefficient  Atom+Function  
  ----- ------------  ---------------      ----- ------------  ---------------
   309      0.248255  19 C  s               315      0.224044  19 C  py        
   139      0.204475   9 C  s               172     -0.172785  11 C  s         
   144     -0.159432   9 C  px        

 Vector   40  Occ=2.000000D+00  E=-8.531270D-01
              MO Center= -9.7D-01, -2.6D+00, -3.4D-01, r^2= 5.5D+00
   Bfn.  Coefficient  Atom+Function         Bfn.  Coefficient  Atom+Function  
  ----- ------------  ---------------      ----- ------------  ---------------
   505      0.284410  30 C  s               573     -0.276375  34 C  s         
   539     -0.248659  32 C  s               630     -0.190099  37 H  s         
   528     -0.188586  31 H  s               449     -0.186342  27 N  pz        
   503     -0.174869  30 C  s               605     -0.168538  36 C  s         
   435     -0.163682  26 H  s               644      0.157484  38 C  pz        

 Vector   41  Occ=2.000000D+00  E=-8.266565D-01
              MO Center=  2.1D+00,  3.2D-01,  2.4D-01, r^2= 4.9D+00
   Bfn.  Coefficient  Atom+Function         Bfn.  Coefficient  Atom+Function  
  ----- ------------  ---------------      ----- ------------  ---------------
   109      0.298132   7 N  pz              139      0.236676   9 C  s         
   128     -0.212769   8 H  s                54      0.208355   5 C  s         
    56     -0.168104   5 C  s                80     -0.164476   6 O  s         

 Vector   42  Occ=2.000000D+00  E=-8.153182D-01
              MO Center= -1.0D+00, -2.5D+00, -5.7D-01, r^2= 5.5D+00
   Bfn.  Coefficient  Atom+Function         Bfn.  Coefficient  Atom+Function  
  ----- ------------  ---------------      ----- ------------  ---------------
   539      0.254305  32 C  s               646     -0.219877  38 C  py        
   445     -0.208764  27 N  s               661      0.185569  38 C  dyz       
   573     -0.181125  34 C  s               446     -0.176832  27 N  s         
   309      0.170956  19 C  s               417     -0.168690  25 C  py        
   537     -0.167992  32 C  s               562     -0.166058  33 H  s         

 Vector   43  Occ=2.000000D+00  E=-8.034367D-01
              MO Center=  7.0D-01,  1.4D+00, -5.0D-03, r^2= 6.0D+00
   Bfn.  Coefficient  Atom+Function         Bfn.  Coefficient  Atom+Function  
  ----- ------------  ---------------      ----- ------------  ---------------
   309      0.225081  19 C  s               128      0.189332   8 H  s         
   279     -0.188399  17 N  pz              109     -0.167532   7 N  pz        
    55     -0.165922   5 C  s               230     -0.163239  15 C  px        
   144     -0.162010   9 C  px              224      0.161618  15 C  s         
   298     -0.161478  18 H  s               277      0.159607  17 N  px        

 Vector   44  Occ=2.000000D+00  E=-7.795677D-01
              MO Center= -9.7D-01,  2.3D+00,  9.4D-02, r^2= 6.7D+00
   Bfn.  Coefficient  Atom+Function         Bfn.  Coefficient  Atom+Function  
  ----- ------------  ---------------      ----- ------------  ---------------
   718      0.220219  41 N  py              664     -0.185334  39 C  s         
   315     -0.181908  19 C  py              279     -0.177744  17 N  pz        
   298     -0.175409  18 H  s               717      0.173439  41 N  px        
   747      0.163250  43 H  s               225      0.156136  15 C  s         
   671     -0.153887  39 C  py        

 Vector   45  Occ=2.000000D+00  E=-7.635852D-01
              MO Center= -9.5D-01, -1.0D+00,  2.1D-01, r^2= 7.6D+00
   Bfn.  Coefficient  Atom+Function         Bfn.  Coefficient  Atom+Function  
  ----- ------------  ---------------      ----- ------------  ---------------
   225      0.184867  15 C  s               385      0.166606  24 C  s         
   445      0.161022  27 N  s               314      0.157757  19 C  px        
   505     -0.158545  30 C  s               643      0.157720  38 C  py        
   352     -0.153023  21 C  py        

 Vector   46  Occ=2.000000D+00  E=-7.374759D-01
              MO Center=  3.9D-01,  7.8D-01, -2.0D-01, r^2= 1.1D+01
   Bfn.  Coefficient  Atom+Function         Bfn.  Coefficient  Atom+Function  
  ----- ------------  ---------------      ----- ------------  ---------------
   144      0.216804   9 C  px              225      0.187029  15 C  s         
   227     -0.179251  15 C  px              145     -0.155567   9 C  py        

 Vector   47  Occ=2.000000D+00  E=-7.291688D-01
              MO Center= -8.7D-01,  6.0D-01, -4.1D-02, r^2= 1.2D+01
   Bfn.  Coefficient  Atom+Function         Bfn.  Coefficient  Atom+Function  
  ----- ------------  ---------------      ----- ------------  ---------------
   717     -0.207662  41 N  px              747     -0.197288  43 H  s         
   649      0.190230  38 C  py              314      0.188850  19 C  px        
   396      0.163035  24 C  pz              505      0.162030  30 C  s         
   666     -0.162414  39 C  s         

 Vector   48  Occ=2.000000D+00  E=-7.209918D-01
              MO Center= -1.2D-02,  5.9D-01,  1.4D-01, r^2= 1.2D+01
   Bfn.  Coefficient  Atom+Function         Bfn.  Coefficient  Atom+Function  
  ----- ------------  ---------------      ----- ------------  ---------------
   225      0.325777  15 C  s               139     -0.268759   9 C  s         
   144      0.248859   9 C  px              717     -0.194508  41 N  px        
   145     -0.192745   9 C  py              747     -0.178250  43 H  s         
   468     -0.170353  28 H  s               227     -0.168167  15 C  px        
   343      0.155947  21 C  s               448      0.156423  27 N  py        

 Vector   49  Occ=2.000000D+00  E=-6.992349D-01
              MO Center=  1.5D+00,  2.1D-02,  6.6D-01, r^2= 7.8D+00
   Bfn.  Coefficient  Atom+Function         Bfn.  Coefficient  Atom+Function  
  ----- ------------  ---------------      ----- ------------  ---------------
    18      0.212230   2 C  py               83     -0.206405   6 O  py        
    15      0.195490   2 C  py               55     -0.174100   5 C  s         
    59      0.168733   5 C  pz        

 Vector   50  Occ=2.000000D+00  E=-6.858183D-01
              MO Center=  2.0D+00,  6.0D-01,  6.3D-01, r^2= 5.1D+00
   Bfn.  Coefficient  Atom+Function         Bfn.  Coefficient  Atom+Function  
  ----- ------------  ---------------      ----- ------------  ---------------
    80      0.214580   6 O  s               142      0.199706   9 C  py        
    83      0.197150   6 O  py              145      0.196161   9 C  py        
    84      0.180992   6 O  pz              162      0.174701  10 H  s         
   108     -0.169175   7 N  py               59     -0.155432   5 C  pz        

 Vector   51  Occ=2.000000D+00  E=-6.787354D-01
              MO Center= -6.5D-01, -1.7D+00,  8.4D-02, r^2= 9.2D+00
   Bfn.  Coefficient  Atom+Function         Bfn.  Coefficient  Atom+Function  
  ----- ------------  ---------------      ----- ------------  ---------------
   572      0.275499  34 C  s               486     -0.224396  29 C  pz        
   646      0.207067  38 C  py              414     -0.201222  25 C  py        
   449      0.187347  27 N  pz              309     -0.172203  19 C  s         
   561     -0.169488  33 H  s               562     -0.169106  33 H  s         
   647      0.163336  38 C  pz              539      0.161784  32 C  s         

 Vector   52  Occ=2.000000D+00  E=-6.669757D-01
              MO Center= -4.2D-01,  1.3D+00, -1.0D-01, r^2= 1.1D+01
   Bfn.  Coefficient  Atom+Function         Bfn.  Coefficient  Atom+Function  
  ----- ------------  ---------------      ----- ------------  ---------------
   314      0.221792  19 C  px              718     -0.177952  41 N  py        
   250     -0.170668  16 O  s               277     -0.171473  17 N  px        
   738     -0.156923  42 H  s         

 Vector   53  Occ=2.000000D+00  E=-6.605461D-01
              MO Center= -1.0D+00,  1.9D+00,  3.2D-02, r^2= 7.7D+00
   Bfn.  Coefficient  Atom+Function         Bfn.  Coefficient  Atom+Function  
  ----- ------------  ---------------      ----- ------------  ---------------
   718      0.203920  41 N  py              313      0.185442  19 C  pz        
   139     -0.180673   9 C  s               225      0.178049  15 C  s         
   332     -0.172225  20 H  s               668     -0.167995  39 C  py        
   738      0.168128  42 H  s               315      0.159594  19 C  py        

 Vector   54  Occ=2.000000D+00  E=-6.528814D-01
              MO Center= -9.1D-01, -2.3D+00, -1.0D+00, r^2= 8.5D+00
   Bfn.  Coefficient  Atom+Function         Bfn.  Coefficient  Atom+Function  
  ----- ------------  ---------------      ----- ------------  ---------------
   576      0.255306  34 C  pz              573      0.232033  34 C  s         
   595     -0.228124  35 H  s               596     -0.202287  35 H  s         
   542      0.186682  32 C  pz              508     -0.181045  30 C  pz        
   395      0.171743  24 C  py              415     -0.172504  25 C  pz        
   309      0.152796  19 C  s               527     -0.150938  31 H  s         

 Vector   55  Occ=2.000000D+00  E=-6.312691D-01
              MO Center=  2.1D+00, -1.0D+00,  9.0D-01, r^2= 5.6D+00
   Bfn.  Coefficient  Atom+Function         Bfn.  Coefficient  Atom+Function  
  ----- ------------  ---------------      ----- ------------  ---------------
    14      0.271633   2 C  px                1      0.229125   1 H  s         
    12      0.227397   2 C  s                45     -0.207039   4 H  s         
    44     -0.200206   4 H  s               139     -0.200264   9 C  s         
    57      0.171041   5 C  px               82      0.171557   6 O  px        

 Vector   56  Occ=2.000000D+00  E=-6.139219D-01
              MO Center=  2.0D-01,  4.6D-01, -5.4D-01, r^2= 1.1D+01
   Bfn.  Coefficient  Atom+Function         Bfn.  Coefficient  Atom+Function  
  ----- ------------  ---------------      ----- ------------  ---------------
   254      0.259807  16 O  pz              144      0.170391   9 C  px        
   139     -0.164645   9 C  s               250     -0.162816  16 O  s         
   229     -0.156217  15 C  pz        

 Vector   57  Occ=2.000000D+00  E=-6.041319D-01
              MO Center= -3.5D-01, -9.4D-01, -5.0D-01, r^2= 1.1D+01
   Bfn.  Coefficient  Atom+Function         Bfn.  Coefficient  Atom+Function  
  ----- ------------  ---------------      ----- ------------  ---------------
   507     -0.197008  30 C  py              630     -0.186993  37 H  s         
   609     -0.184243  36 C  py              482      0.181655  29 C  py        
   505     -0.171092  30 C  s               485      0.166761  29 C  py        
   629     -0.160497  37 H  s               528      0.152565  31 H  s         

 Vector   58  Occ=2.000000D+00  E=-6.002244D-01
              MO Center=  1.3D+00,  1.7D-01,  7.9D-01, r^2= 8.9D+00
   Bfn.  Coefficient  Atom+Function         Bfn.  Coefficient  Atom+Function  
  ----- ------------  ---------------      ----- ------------  ---------------
    84      0.281399   6 O  pz               58     -0.218445   5 C  py        
    15      0.184942   2 C  py               18      0.165640   2 C  py        
    80      0.165597   6 O  s                87      0.158447   6 O  pz        
   309     -0.153913  19 C  s               128     -0.153147   8 H  s         
   163      0.153169  10 H  s         

 Vector   59  Occ=2.000000D+00  E=-5.973353D-01
              MO Center= -8.1D-01, -2.2D+00, -6.7D-01, r^2= 7.5D+00
   Bfn.  Coefficient  Atom+Function         Bfn.  Coefficient  Atom+Function  
  ----- ------------  ---------------      ----- ------------  ---------------
   486      0.229625  29 C  pz              610      0.208307  36 C  pz        
   647     -0.206704  38 C  pz              644     -0.190315  38 C  pz        
   528      0.175908  31 H  s               527      0.173410  31 H  s         
   629     -0.163048  37 H  s               483      0.156153  29 C  pz        

 Vector   60  Occ=2.000000D+00  E=-5.948144D-01
              MO Center= -3.0D-01, -1.1D+00,  6.0D-01, r^2= 8.5D+00
   Bfn.  Coefficient  Atom+Function         Bfn.  Coefficient  Atom+Function  
  ----- ------------  ---------------      ----- ------------  ---------------
   396      0.361558  24 C  pz              641      0.273157  38 C  s         
   447      0.241414  27 N  px              666     -0.234971  39 C  s         
   106      0.228279   7 N  s               395      0.213086  24 C  py        
   318      0.208487  19 C  py               56     -0.203470   5 C  s         
   450      0.203332  27 N  px              352      0.189221  21 C  py        

 Vector   61  Occ=2.000000D+00  E=-5.894309D-01
              MO Center= -9.9D-01,  1.2D+00,  2.8D-01, r^2= 1.3D+01
   Bfn.  Coefficient  Atom+Function         Bfn.  Coefficient  Atom+Function  
  ----- ------------  ---------------      ----- ------------  ---------------
   692      0.294968  40 O  px              667     -0.235597  39 C  px        
   690     -0.197995  40 O  s                36     -0.169957   3 H  s         

 Vector   62  Occ=2.000000D+00  E=-5.843695D-01
              MO Center=  1.6D+00, -7.3D-01,  9.1D-01, r^2= 9.7D+00
   Bfn.  Coefficient  Atom+Function         Bfn.  Coefficient  Atom+Function  
  ----- ------------  ---------------      ----- ------------  ---------------
    36      0.323344   3 H  s                16      0.285518   2 C  pz        
    35      0.271155   3 H  s               226      0.168915  15 C  s         
   539      0.168077  32 C  s                84      0.159022   6 O  pz        

 Vector   63  Occ=2.000000D+00  E=-5.735262D-01
              MO Center= -2.6D-01, -9.7D-02,  2.5D-01, r^2= 1.2D+01
   Bfn.  Coefficient  Atom+Function         Bfn.  Coefficient  Atom+Function  
  ----- ------------  ---------------      ----- ------------  ---------------
   174      0.228021  11 C  s               393     -0.226214  24 C  pz        
   435      0.214790  26 H  s               415      0.206204  25 C  pz        
   434      0.185827  26 H  s               396      0.169707  24 C  pz        
   376      0.168563  23 H  s               390     -0.157863  24 C  pz        
    12     -0.156745   2 C  s               407     -0.154194  24 C  dyz       

 Vector   64  Occ=2.000000D+00  E=-5.682132D-01
              MO Center=  3.8D-01,  8.5D-01,  9.4D-03, r^2= 1.3D+01
   Bfn.  Coefficient  Atom+Function         Bfn.  Coefficient  Atom+Function  
  ----- ------------  ---------------      ----- ------------  ---------------
   175      0.231370  11 C  px               56      0.212997   5 C  s         
   205      0.200359  13 H  s               345      0.177633  21 C  px        

 Vector   65  Occ=2.000000D+00  E=-5.609096D-01
              MO Center=  7.1D-01,  1.0D+00, -6.3D-01, r^2= 1.1D+01
   Bfn.  Coefficient  Atom+Function         Bfn.  Coefficient  Atom+Function  
  ----- ------------  ---------------      ----- ------------  ---------------
   197     -0.199441  12 H  s               253      0.190442  16 O  py        
   174      0.189119  11 C  s               176     -0.183583  11 C  py        
   226     -0.182624  15 C  s               309      0.176024  19 C  s         
   214      0.169881  14 H  s               139     -0.157549   9 C  s         

 Vector   66  Occ=2.000000D+00  E=-5.493399D-01
              MO Center=  1.5D+00,  5.3D-01,  2.1D-01, r^2= 1.1D+01
   Bfn.  Coefficient  Atom+Function         Bfn.  Coefficient  Atom+Function  
  ----- ------------  ---------------      ----- ------------  ---------------
   197      0.204973  12 H  s                14      0.183056   2 C  px        
   176      0.178990  11 C  py              196      0.168606  12 H  s         
     1      0.164269   1 H  s                35     -0.161814   3 H  s         
    45     -0.153245   4 H  s         

 Vector   67  Occ=2.000000D+00  E=-5.452239D-01
              MO Center= -1.1D+00, -1.7D-01, -3.3D-01, r^2= 1.4D+01
   Bfn.  Coefficient  Atom+Function         Bfn.  Coefficient  Atom+Function  
  ----- ------------  ---------------      ----- ------------  ---------------
   562     -0.213028  33 H  s               367      0.211503  22 H  s         
   561     -0.185718  33 H  s               347      0.173103  21 C  pz        
   366      0.160398  22 H  s               376     -0.159757  23 H  s         
   669     -0.158773  39 C  pz              309     -0.157806  19 C  s         
   539      0.155785  32 C  s               542      0.152326  32 C  pz        

 Vector   68  Occ=2.000000D+00  E=-5.426639D-01
              MO Center=  8.1D-01,  8.0D-01, -3.9D-01, r^2= 1.2D+01
   Bfn.  Coefficient  Atom+Function         Bfn.  Coefficient  Atom+Function  
  ----- ------------  ---------------      ----- ------------  ---------------
   206      0.230161  13 H  s               346     -0.214265  21 C  py        
   205      0.211326  13 H  s               175      0.164719  11 C  px        
   309     -0.163909  19 C  s               196     -0.152816  12 H  s         

 Vector   69  Occ=2.000000D+00  E=-5.396248D-01
              MO Center=  2.0D+00,  1.3D-02,  5.1D-01, r^2= 7.6D+00
   Bfn.  Coefficient  Atom+Function         Bfn.  Coefficient  Atom+Function  
  ----- ------------  ---------------      ----- ------------  ---------------
    82     -0.228395   6 O  px               56     -0.226260   5 C  s         
     2      0.222244   1 H  s                44     -0.200189   4 H  s         
    13     -0.185472   2 C  s                45     -0.184794   4 H  s         
    85     -0.175683   6 O  px               14      0.171065   2 C  px        
    16      0.156878   2 C  pz                1      0.155872   1 H  s         

 Vector   70  Occ=2.000000D+00  E=-5.336069D-01
              MO Center= -6.6D-01,  5.0D-01, -5.2D-03, r^2= 1.1D+01
   Bfn.  Coefficient  Atom+Function         Bfn.  Coefficient  Atom+Function  
  ----- ------------  ---------------      ----- ------------  ---------------
   345      0.233493  21 C  px              389      0.199336  24 C  py        
   375     -0.193481  23 H  s               175     -0.159085  11 C  px        
   392      0.159731  24 C  py              205     -0.150210  13 H  s         

 Vector   71  Occ=2.000000D+00  E=-5.216575D-01
              MO Center=  9.7D-01,  9.7D-01, -6.5D-01, r^2= 1.1D+01
   Bfn.  Coefficient  Atom+Function         Bfn.  Coefficient  Atom+Function  
  ----- ------------  ---------------      ----- ------------  ---------------
   143      0.253504   9 C  pz              177     -0.241719  11 C  pz        
   174      0.233141  11 C  s               162      0.203573  10 H  s         
   180     -0.200623  11 C  pz              214      0.188234  14 H  s         
   173     -0.184809  11 C  s               178      0.174382  11 C  px        
   206     -0.155065  13 H  s         

 Vector   72  Occ=2.000000D+00  E=-5.181123D-01
              MO Center=  7.9D-02, -6.6D-03, -8.4D-01, r^2= 1.2D+01
   Bfn.  Coefficient  Atom+Function         Bfn.  Coefficient  Atom+Function  
  ----- ------------  ---------------      ----- ------------  ---------------
   596      0.236025  35 H  s               309      0.192768  19 C  s         
   576     -0.183991  34 C  pz              143     -0.176135   9 C  pz        
   595      0.174022  35 H  s               173      0.171647  11 C  s         
   162     -0.167495  10 H  s               610      0.168068  36 C  pz        
   644     -0.168239  38 C  pz              177      0.153524  11 C  pz        

 Vector   73  Occ=2.000000D+00  E=-4.991433D-01
              MO Center= -1.3D+00, -6.5D-01, -4.3D-01, r^2= 8.6D+00
   Bfn.  Coefficient  Atom+Function         Bfn.  Coefficient  Atom+Function  
  ----- ------------  ---------------      ----- ------------  ---------------
   630     -0.236339  37 H  s               596      0.231072  35 H  s         
   573     -0.210835  34 C  s               367     -0.207370  22 H  s         
   313      0.201951  19 C  pz              505      0.200867  30 C  s         
   347     -0.199375  21 C  pz              528     -0.196028  31 H  s         
   650     -0.177714  38 C  pz              644     -0.176599  38 C  pz        

 Vector   74  Occ=2.000000D+00  E=-4.760408D-01
              MO Center= -1.3D+00, -1.1D+00, -1.4D-01, r^2= 7.1D+00
   Bfn.  Coefficient  Atom+Function         Bfn.  Coefficient  Atom+Function  
  ----- ------------  ---------------      ----- ------------  ---------------
   643      0.245899  38 C  py              367      0.242848  22 H  s         
   630     -0.237427  37 H  s               539     -0.217709  32 C  s         
   528     -0.215768  31 H  s               366      0.206188  22 H  s         
   482     -0.198674  29 C  py              347      0.187869  21 C  pz        
   505      0.183648  30 C  s               607      0.180220  36 C  s         

 Vector   75  Occ=2.000000D+00  E=-4.714049D-01
              MO Center= -8.7D-01, -2.6D+00, -8.4D-01, r^2= 5.3D+00
   Bfn.  Coefficient  Atom+Function         Bfn.  Coefficient  Atom+Function  
  ----- ------------  ---------------      ----- ------------  ---------------
   396      0.452278  24 C  pz              395      0.418851  24 C  py        
   412     -0.347616  25 C  s               666     -0.340069  39 C  s         
   648     -0.316562  38 C  px              641      0.300413  38 C  s         
   650      0.286846  38 C  pz              344     -0.280018  21 C  s         
   649      0.260229  38 C  py              318      0.253390  19 C  py        

 Vector   76  Occ=2.000000D+00  E=-4.567029D-01
              MO Center=  1.3D+00,  1.2D+00, -9.7D-02, r^2= 6.3D+00
   Bfn.  Coefficient  Atom+Function         Bfn.  Coefficient  Atom+Function  
  ----- ------------  ---------------      ----- ------------  ---------------
   252      0.396939  16 O  px              255      0.322723  16 O  px        
    82     -0.244276   6 O  px               83     -0.201658   6 O  py        
   139     -0.200168   9 C  s                85     -0.193239   6 O  px        
   107      0.170431   7 N  px              110      0.166382   7 N  px        
    86     -0.158440   6 O  py              106      0.154304   7 N  s         

 Vector   77  Occ=2.000000D+00  E=-4.399009D-01
              MO Center=  1.5D+00,  3.0D-01,  1.2D+00, r^2= 5.6D+00
   Bfn.  Coefficient  Atom+Function         Bfn.  Coefficient  Atom+Function  
  ----- ------------  ---------------      ----- ------------  ---------------
    83      0.395442   6 O  py               86      0.316896   6 O  py        
    84     -0.264382   6 O  pz               87     -0.230054   6 O  pz        
    15      0.191686   2 C  py               18      0.188404   2 C  py        

 Vector   78  Occ=2.000000D+00  E=-4.327878D-01
              MO Center= -8.5D-01,  2.2D+00,  2.1D-01, r^2= 7.7D+00
   Bfn.  Coefficient  Atom+Function         Bfn.  Coefficient  Atom+Function  
  ----- ------------  ---------------      ----- ------------  ---------------
   693      0.391497  40 O  py              696      0.309582  40 O  py        
   253     -0.218273  16 O  py              226     -0.206661  15 C  s         
    83     -0.192867   6 O  py              278      0.174999  17 N  py        
   281      0.174793  17 N  py              256     -0.170269  16 O  py        
   309      0.169825  19 C  s               276      0.166655  17 N  s         

 Vector   79  Occ=2.000000D+00  E=-4.062252D-01
              MO Center=  1.4D+00,  1.2D+00, -2.6D-03, r^2= 6.2D+00
   Bfn.  Coefficient  Atom+Function         Bfn.  Coefficient  Atom+Function  
  ----- ------------  ---------------      ----- ------------  ---------------
   107      0.330017   7 N  px              110      0.311771   7 N  px        
   252     -0.276063  16 O  px              255     -0.220959  16 O  px        
    82     -0.213547   6 O  px              144     -0.203982   9 C  px        
    85     -0.176436   6 O  px              141     -0.165302   9 C  px        
   276     -0.156019  17 N  s         

 Vector   80  Occ=2.000000D+00  E=-3.941822D-01
              MO Center= -1.5D+00,  3.2D+00,  8.0D-02, r^2= 5.0D+00
   Bfn.  Coefficient  Atom+Function         Bfn.  Coefficient  Atom+Function  
  ----- ------------  ---------------      ----- ------------  ---------------
   719      0.360563  41 N  pz              722      0.307013  41 N  pz        
   694     -0.299596  40 O  pz              697     -0.231558  40 O  pz        
   693     -0.188105  40 O  py        

 Vector   81  Occ=2.000000D+00  E=-3.840972D-01
              MO Center= -1.2D+00,  2.3D+00, -1.2D-02, r^2= 5.6D+00
   Bfn.  Coefficient  Atom+Function         Bfn.  Coefficient  Atom+Function  
  ----- ------------  ---------------      ----- ------------  ---------------
   693     -0.304602  40 O  py              278      0.282575  17 N  py        
   281      0.261219  17 N  py              696     -0.237147  40 O  py        
   253     -0.173641  16 O  py              312     -0.164514  19 C  py        
   279      0.162298  17 N  pz              694      0.157882  40 O  pz        

 Vector   82  Occ=2.000000D+00  E=-3.820897D-01
              MO Center= -1.1D+00, -1.6D+00, -5.0D-02, r^2= 6.6D+00
   Bfn.  Coefficient  Atom+Function         Bfn.  Coefficient  Atom+Function  
  ----- ------------  ---------------      ----- ------------  ---------------
   607      0.266047  36 C  s               388      0.228796  24 C  px        
   641      0.212862  38 C  s               642      0.205061  38 C  px        
   506     -0.201129  30 C  px              396      0.198819  24 C  pz        
   412     -0.196725  25 C  s               539     -0.183377  32 C  s         
   608      0.176448  36 C  px              391      0.174650  24 C  px        

 Vector   83  Occ=2.000000D+00  E=-3.087880D-01
              MO Center= -9.7D-01, -2.6D+00, -6.7D-01, r^2= 4.2D+00
   Bfn.  Coefficient  Atom+Function         Bfn.  Coefficient  Atom+Function  
  ----- ------------  ---------------      ----- ------------  ---------------
   574     -0.272240  34 C  px              481      0.254880  29 C  px        
   577     -0.219945  34 C  px              642      0.220355  38 C  px        
   484      0.204408  29 C  px              645      0.196293  38 C  px        
   447     -0.175066  27 N  px              450     -0.161448  27 N  px        
   540     -0.161237  32 C  px              413     -0.152227  25 C  px        

 Vector   84  Occ=2.000000D+00  E=-2.909378D-01
              MO Center= -1.1D+00, -2.1D+00,  2.9D-02, r^2= 5.4D+00
   Bfn.  Coefficient  Atom+Function         Bfn.  Coefficient  Atom+Function  
  ----- ------------  ---------------      ----- ------------  ---------------
   388      0.258520  24 C  px              413      0.218031  25 C  px        
   608     -0.217063  36 C  px              391      0.215303  24 C  px        
   506      0.196655  30 C  px              447     -0.194809  27 N  px        
   416      0.182725  25 C  px              450     -0.176576  27 N  px        
   540      0.175916  32 C  px              395     -0.171013  24 C  py        

 Vector   85  Occ=0.000000D+00  E= 2.210572D-02
              MO Center=  3.3D+00, -3.2D+00,  4.8D-01, r^2= 2.6D+01
[...]
  ----- ------------  ---------------      ----- ------------  ---------------
   318      9.262512  19 C  py              396      9.240477  24 C  pz        
   649      9.039155  38 C  py              412     -8.452950  25 C  s         
   344     -8.111858  21 C  s               650      7.927844  38 C  pz        
   395      7.612775  24 C  py              666     -6.999468  39 C  s         
   276      6.942994  17 N  s               641      6.560955  38 C  s         

 Vector  213  Occ=0.000000D+00  E= 4.503656D-01
              MO Center=  1.7D-01, -7.4D-02, -1.9D-01, r^2= 2.2D+01
   Bfn.  Coefficient  Atom+Function         Bfn.  Coefficient  Atom+Function  
  ----- ------------  ---------------      ----- ------------  ---------------
   226     15.169014  15 C  s               539     11.177782  32 C  s         
    64    -10.766501   5 C  py              607    -10.508249  36 C  s         
   395    -10.274592  24 C  py              317     -9.852495  19 C  px        
   233      9.687292  15 C  px              396     -9.690579  24 C  pz        
   140      8.628315   9 C  s               174     -8.632059  11 C  s         

 Vector  214  Occ=0.000000D+00  E= 4.521214D-01
              MO Center=  2.6D-01, -5.1D-01, -2.6D-01, r^2= 2.1D+01
   Bfn.  Coefficient  Atom+Function         Bfn.  Coefficient  Atom+Function  
  ----- ------------  ---------------      ----- ------------  ---------------
   489    -12.359711  29 C  pz               13     12.102381   2 C  s         
   396     11.517418  24 C  pz               56     11.052776   5 C  s         
   106    -10.932292   7 N  s               233    -10.352618  15 C  px        
   573      9.865080  34 C  s               650      9.785219  38 C  pz        
   318      9.660508  19 C  py              174      8.994879  11 C  s         

 Vector  215  Occ=0.000000D+00  E= 4.570616D-01
              MO Center=  3.1D-01, -5.3D-01, -1.1D-01, r^2= 2.2D+01
   Bfn.  Coefficient  Atom+Function         Bfn.  Coefficient  Atom+Function  
  ----- ------------  ---------------      ----- ------------  ---------------
   446     10.391595  27 N  s                12     -8.399253   2 C  s         
   352      8.391203  21 C  py               56     -7.888441   5 C  s         
   174      7.542093  11 C  s               649      7.205945  38 C  py        
   284     -6.909775  17 N  py              394     -6.767426  24 C  px        
   106     -6.341465   7 N  s               115      5.857086   7 N  pz        

 Vector  216  Occ=0.000000D+00  E= 4.591692D-01
              MO Center= -3.5D-02,  8.2D-02, -9.0D-02, r^2= 2.3D+01
   Bfn.  Coefficient  Atom+Function         Bfn.  Coefficient  Atom+Function  
  ----- ------------  ---------------      ----- ------------  ---------------
   446     11.453439  27 N  s               666    -11.190990  39 C  s         
   649     10.911196  38 C  py              539    -10.830316  32 C  s         
   352     10.130118  21 C  py              318      9.997577  19 C  py        
   650      9.938808  38 C  pz              395      9.297632  24 C  py        
   276      9.073064  17 N  s               412     -8.378313  25 C  s         

 Vector  217  Occ=0.000000D+00  E= 4.628209D-01
              MO Center=  4.8D-01, -3.5D-01, -1.1D-01, r^2= 2.2D+01
   Bfn.  Coefficient  Atom+Function         Bfn.  Coefficient  Atom+Function  
  ----- ------------  ---------------      ----- ------------  ---------------
   666     16.794419  39 C  s               716    -14.906608  41 N  s         
   412     11.490978  25 C  s               352     -9.994869  21 C  py        
   650     -9.866399  38 C  pz              394      9.770060  24 C  px        
   140     -9.574052   9 C  s               607     -9.216289  36 C  s         
   226     -9.048830  15 C  s               649     -8.977954  38 C  py        

 Vector  218  Occ=0.000000D+00  E= 4.634366D-01
              MO Center= -1.0D-01, -5.3D-01,  6.2D-01, r^2= 2.3D+01
   Bfn.  Coefficient  Atom+Function         Bfn.  Coefficient  Atom+Function  
  ----- ------------  ---------------      ----- ------------  ---------------
   352     21.161812  21 C  py              649     18.633636  38 C  py        
   489    -18.040680  29 C  pz              666    -12.762956  39 C  s         
   395    -10.617985  24 C  py              148     -9.893675   9 C  py        
   446      9.707423  27 N  s               454     -8.915595  27 N  py        
   505      8.949375  30 C  s                12      7.904723   2 C  s         

 Vector  219  Occ=0.000000D+00  E= 4.708583D-01
              MO Center=  6.6D-02, -5.3D-01,  8.0D-02, r^2= 2.2D+01
   Bfn.  Coefficient  Atom+Function         Bfn.  Coefficient  Atom+Function  
  ----- ------------  ---------------      ----- ------------  ---------------
   489     18.768303  29 C  pz              505     18.398586  30 C  s         
   276    -16.153482  17 N  s               387    -12.315706  24 C  s         
   573    -11.080764  34 C  s               446    -10.367991  27 N  s         
   607     10.137458  36 C  s               412    -10.049787  25 C  s         
   106     -8.704345   7 N  s               480      8.384393  29 C  s         

 Vector  220  Occ=0.000000D+00  E= 4.725927D-01
              MO Center=  1.0D+00,  6.0D-01, -5.8D-01, r^2= 2.3D+01
   Bfn.  Coefficient  Atom+Function         Bfn.  Coefficient  Atom+Function  
  ----- ------------  ---------------      ----- ------------  ---------------
   174     13.190513  11 C  s               641     10.924889  38 C  s         
   539     -9.976774  32 C  s               233     -9.364227  15 C  px        
   147     -9.101879   9 C  px              318     -8.520633  19 C  py        
   376     -8.510117  23 H  s               616     -8.461779  36 C  pz        
   226     -8.377201  15 C  s               488     -8.120830  29 C  py        

 Vector  221  Occ=0.000000D+00  E= 4.756804D-01
              MO Center=  1.8D-01,  4.5D-01, -4.5D-01, r^2= 2.2D+01
   Bfn.  Coefficient  Atom+Function         Bfn.  Coefficient  Atom+Function  
  ----- ------------  ---------------      ----- ------------  ---------------
   174     14.690282  11 C  s               276    -14.147306  17 N  s         
   446     10.879897  27 N  s                12     10.097936   2 C  s         
   649      9.740516  38 C  py              412     -9.593602  25 C  s         
   641      9.322993  38 C  s               140      9.037463   9 C  s         
   283     -8.937533  17 N  px              650      8.600764  38 C  pz        

 Vector  222  Occ=0.000000D+00  E= 4.797104D-01
              MO Center=  4.6D-01, -5.3D-02,  9.8D-02, r^2= 2.4D+01
   Bfn.  Coefficient  Atom+Function         Bfn.  Coefficient  Atom+Function  
  ----- ------------  ---------------      ----- ------------  ---------------
   226     22.657549  15 C  s               352    -15.842826  21 C  py        
   648    -14.631123  38 C  px              396     13.851198  24 C  pz        
   140     11.945669   9 C  s               233     -9.930564  15 C  px        
   487      9.489549  29 C  px              607      9.382470  36 C  s         
   650     -9.083429  38 C  pz              317     -8.753405  19 C  px        

 Vector  223  Occ=0.000000D+00  E= 4.827714D-01
              MO Center=  7.6D-02,  4.3D-02, -5.3D-01, r^2= 2.1D+01
   Bfn.  Coefficient  Atom+Function         Bfn.  Coefficient  Atom+Function  
  ----- ------------  ---------------      ----- ------------  ---------------
   233     23.237986  15 C  px              539    -22.703903  32 C  s         
   276     17.383953  17 N  s               607     15.759981  36 C  s         
   344     12.850260  21 C  s               446    -12.658091  27 N  s         
   505     12.522230  30 C  s               396    -12.370451  24 C  pz        
   174    -12.141115  11 C  s               489     11.642565  29 C  pz        

 Vector  224  Occ=0.000000D+00  E= 4.876339D-01
              MO Center= -3.2D-01,  3.4D-01,  2.1D-01, r^2= 2.4D+01
   Bfn.  Coefficient  Atom+Function         Bfn.  Coefficient  Atom+Function  
  ----- ------------  ---------------      ----- ------------  ---------------
   174     15.848129  11 C  s               649    -14.708283  38 C  py        
   666     14.740426  39 C  s               396    -14.097437  24 C  pz        
   310     11.984905  19 C  s               650    -11.073643  38 C  pz        
   489     10.515843  29 C  pz               56     -9.840078   5 C  s         
   648      9.752688  38 C  px              276     -9.063442  17 N  s         

 Vector  225  Occ=0.000000D+00  E= 4.898272D-01
              MO Center=  9.6D-01,  5.6D-01, -6.8D-02, r^2= 2.2D+01
   Bfn.  Coefficient  Atom+Function         Bfn.  Coefficient  Atom+Function  
  ----- ------------  ---------------      ----- ------------  ---------------
   276     13.376012  17 N  s                56     10.136277   5 C  s         
   226     -9.703057  15 C  s               174     -9.068820  11 C  s         
   148      7.756694   9 C  py              300      7.362729  18 H  s         
    12      6.969998   2 C  s                13      6.959611   2 C  s         
   163      6.896604  10 H  s               641     -6.644925  38 C  s         

 Vector  226  Occ=0.000000D+00  E= 4.953996D-01
              MO Center=  2.2D-01, -1.1D-01,  1.8D-01, r^2= 2.2D+01
   Bfn.  Coefficient  Atom+Function         Bfn.  Coefficient  Atom+Function  
  ----- ------------  ---------------      ----- ------------  ---------------
   539    -16.455074  32 C  s               607     15.797599  36 C  s         
   395     15.611947  24 C  py              489     11.825115  29 C  pz        
   480     11.220519  29 C  s               412    -10.197572  25 C  s         
   487      9.361126  29 C  px              387     -9.124970  24 C  s         
   648     -8.819608  38 C  px              233      8.593380  15 C  px        

 Vector  227  Occ=0.000000D+00  E= 4.973575D-01
              MO Center= -1.3D-01,  1.4D-01,  2.2D-01, r^2= 2.0D+01
   Bfn.  Coefficient  Atom+Function         Bfn.  Coefficient  Atom+Function  
  ----- ------------  ---------------      ----- ------------  ---------------
   276     11.201618  17 N  s               573     -9.290666  34 C  s         
   539      7.671639  32 C  s               489      6.724569  29 C  pz        
   352     -6.649871  21 C  py              395     -6.549577  24 C  py        
   480     -6.542359  29 C  s               318     -6.426802  19 C  py        
   650     -6.231211  38 C  pz              581      6.117050  34 C  py        

 Vector  228  Occ=0.000000D+00  E= 5.019843D-01
              MO Center=  4.2D-02, -4.4D-01, -4.4D-01, r^2= 2.2D+01
   Bfn.  Coefficient  Atom+Function         Bfn.  Coefficient  Atom+Function  
  ----- ------------  ---------------      ----- ------------  ---------------
   233     18.441579  15 C  px              174    -13.729261  11 C  s         
   106    -11.604717   7 N  s               226      9.623937  15 C  s         
   641     -9.472787  38 C  s               396     -9.131223  24 C  pz        
   148     -8.486666   9 C  py              319     -7.259309  19 C  pz        
   607     -6.487646  36 C  s               140      6.323395   9 C  s         


 center of mass
 --------------
 x =  -0.06761471 y =   0.02377895 z =   0.01586940

 moments of inertia (a.u.)
 ------------------
        8097.826072393441           0.000000000001          -0.000000000000
           0.000000000001        5600.431102429256          -0.000000000000
          -0.000000000000          -0.000000000000       10100.172044330027

  Mulliken analysis of the total density
  --------------------------------------

    Atom       Charge   Shell Charges
 -----------   ------   -------------------------------------------------------
    1 H    1     0.85   0.77  0.13  0.01  0.03 -0.08
    2 C    6     6.36   2.01  0.66  0.43  0.07  2.07  0.92  0.00  0.06  0.13
    3 H    1     0.94   0.77  0.20  0.00  0.03 -0.07
    4 H    1     0.80   0.76  0.09 -0.00  0.03 -0.08
    5 C    6     5.05   2.01  0.68  0.06  0.02  1.89  0.30 -0.13  0.24 -0.03
    6 O    8     8.85   2.01  0.82  1.01  0.19  2.80  1.87  0.14  0.02 -0.01
    7 N    7     7.55   2.01  0.72  0.80 -0.13  2.45  1.45  0.17  0.05  0.04
    8 H    1     0.97   0.77  0.22 -0.03  0.05 -0.04
    9 C    6     6.67   2.01  0.66  0.05 -0.06  1.99  1.73 -0.07  0.14  0.21
   10 H    1     1.01   0.78  0.18  0.01  0.03  0.01
   11 C    6     5.71   2.01  0.66  0.23  0.26  2.04  0.47 -0.03  0.07  0.00
   12 H    1     0.97   0.77  0.24  0.01  0.03 -0.08
   13 H    1     0.95   0.77  0.22  0.01  0.03 -0.09
   14 H    1     0.91   0.77  0.17  0.02  0.03 -0.08
   15 C    6     4.47   2.01  0.68 -0.07 -0.06  1.88  0.17  0.08  0.23 -0.45
   16 O    8     8.86   2.01  0.82  1.04  0.19  2.79  1.87  0.14  0.01 -0.00
   17 N    7     7.45   2.01  0.72  0.86 -0.19  2.45  1.44  0.06  0.05  0.04
   18 H    1     0.89   0.73  0.28 -0.02  0.06 -0.15
   19 C    6     6.71   2.01  0.67  0.14  0.03  1.99  1.36  0.28  0.14  0.09
   20 H    1     1.00   0.79  0.20 -0.02  0.03  0.02
   21 C    6     5.65   2.01  0.66  0.04  0.04  2.05  0.74  0.07  0.10 -0.05
   22 H    1     1.03   0.78  0.29  0.00  0.03 -0.08
   23 H    1     0.83   0.78  0.11 -0.00  0.03 -0.08
   24 C    6     6.37   2.01  0.65  0.18 -0.22  2.04  1.18  0.18  0.12  0.23
   25 C    6     4.71   2.01  0.67 -0.02 -0.24  1.99  0.28  0.10  0.12 -0.20
   26 H    1     1.43   0.77  0.65 -0.01  0.03 -0.01
   27 N    7     8.02   2.01  0.72  1.18 -0.06  2.44  1.51  0.02  0.06  0.15
   28 H    1     1.08   0.77  0.26 -0.01  0.05  0.00
   29 C    6     5.63   2.01  0.66  0.18 -0.13  2.00  0.49  0.29  0.15 -0.02
   30 C    6     5.14   2.01  0.66  0.19 -0.54  2.02  0.73  0.17  0.09 -0.18
   31 H    1     1.58   0.78  0.76 -0.00  0.03  0.01
   32 C    6     5.50   2.01  0.66  0.14 -0.39  1.99  0.87  0.36  0.09 -0.22
   33 H    1     1.56   0.78  0.74 -0.01  0.03  0.02
   34 C    6     5.27   2.01  0.66  0.16 -0.45  2.01  0.76  0.29  0.09 -0.27
   35 H    1     1.55   0.78  0.73 -0.01  0.03  0.02
   36 C    6     5.35   2.01  0.66  0.15 -0.35  1.99  0.80  0.22  0.09 -0.22
   37 H    1     1.63   0.79  0.83 -0.00  0.03 -0.01
   38 C    6     6.27   2.01  0.66  0.28 -0.23  2.02  1.35 -0.00  0.12  0.06
   39 C    6     4.48   2.01  0.68  0.08  0.04  1.89 -0.16 -0.06  0.24 -0.23
   40 O    8     8.77   2.01  0.82  1.03  0.15  2.79  1.83  0.14  0.01 -0.01
   41 N    7     7.26   2.01  0.72  0.83 -0.13  2.47  1.25  0.09  0.04 -0.02
   42 H    1     1.01   0.76  0.23 -0.00  0.05 -0.03
   43 H    1     0.92   0.73  0.19 -0.02  0.06 -0.05

       Multipole analysis of the density wrt the origin
       ------------------------------------------------

     L   x y z        total         open         nuclear
     -   - - -        -----         ----         -------
     0   0 0 0      0.000000      0.000000    168.000000

     1   1 0 0      2.456553      0.000000     -0.000000
     1   0 1 0     -1.851772      0.000000      0.000000
     1   0 0 1      0.107083      0.000000     -0.000000

     2   2 0 0   -105.391224      0.000000   2094.921977
     2   1 1 0      4.142157      0.000000      2.933407
     2   1 0 1     -0.303377      0.000000    -11.543146
     2   0 2 0    -96.477543      0.000000   3405.869279
     2   0 1 1     -4.488651      0.000000     -9.739047
     2   0 0 2   -102.685366      0.000000   1007.431660


 Task  times  cpu:    35614.6s     wall:    35764.2s


                                NWChem Input Module
                                -------------------


 Summary of allocated global arrays
-----------------------------------
  No active global arrays


MA_summarize_allocated_blocks: starting scan ...
MA_summarize_allocated_blocks: scan completed: 0 heap blocks, 0 stack blocks
MA usage statistics:

	allocation statistics:
					      heap	     stack
					      ----	     -----
	current number of blocks	         0	         0
	maximum number of blocks	        16	        14
	current total bytes		         0	         0
	maximum total bytes		    162048	  33964440
	maximum total K-bytes		       163	     33965
	maximum total M-bytes		         1	        34


                                     CITATION
                                     --------
                Please cite the following reference when publishing
                           results obtained with NWChem:

          E. Apra, E. J. Bylaska, W. A. de Jong, N. Govind, K. Kowalski,
       T. P. Straatsma, M. Valiev, H. J. J. van Dam, Y. Alexeev, J. Anchell,
       V. Anisimov, F. W. Aquino, R. Atta-Fynn, J. Autschbach, N. P. Bauman,
     J. C. Becca, D. E. Bernholdt, K. Bhaskaran-Nair, S. Bogatko, P. Borowski,
         J. Boschen, J. Brabec, A. Bruner, E. Cauet, Y. Chen, G. N. Chuev,
      C. J. Cramer, J. Daily, M. J. O. Deegan, T. H. Dunning Jr., M. Dupuis,
   K. G. Dyall, G. I. Fann, S. A. Fischer, A. Fonari, H. Fruchtl, L. Gagliardi,
      J. Garza, N. Gawande, S. Ghosh, K. Glaesemann, A. W. Gotz, J. Hammond,
       V. Helms, E. D. Hermes, K. Hirao, S. Hirata, M. Jacquelin, L. Jensen,
   B. G. Johnson, H. Jonsson, R. A. Kendall, M. Klemm, R. Kobayashi, V. Konkov,
      S. Krishnamoorthy, M. Krishnan, Z. Lin, R. D. Lins, R. J. Littlefield,
      A. J. Logsdail, K. Lopata, W. Ma, A. V. Marenich, J. Martin del Campo,
   D. Mejia-Rodriguez, J. E. Moore, J. M. Mullin, T. Nakajima, D. R. Nascimento,
    J. A. Nichols, P. J. Nichols, J. Nieplocha, A. Otero-de-la-Roza, B. Palmer,
    A. Panyala, T. Pirojsirikul, B. Peng, R. Peverati, J. Pittner, L. Pollack,
   R. M. Richard, P. Sadayappan, G. C. Schatz, W. A. Shelton, D. W. Silverstein,
   D. M. A. Smith, T. A. Soares, D. Song, M. Swart, H. L. Taylor, G. S. Thomas,
            V. Tipparaju, D. G. Truhlar, K. Tsemekhman, T. Van Voorhis,
      A. Vazquez-Mayagoitia, P. Verma, O. Villa, A. Vishnu, K. D. Vogiatzis,
        D. Wang, J. H. Weare, M. J. Williamson, T. L. Windus, K. Wolinski,
        A. T. Wong, Q. Wu, C. Yang, Q. Yu, M. Zacharias, Z. Zhang, Y. Zhao,
                                and R. J. Harrison
                        "NWChem: Past, present, and future
                         J. Chem. Phys. 152, 184102 (2020)
                               doi:10.1063/5.0004997

                                      AUTHORS
                                      -------
  E. Apra, E. J. Bylaska, N. Govind, K. Kowalski, M. Valiev, D. Mejia-Rodriguez,
       A. Kunitsa, N. P. Bauman, A. Panyala, W. A. de Jong, T. P. Straatsma,
   H. J. J. van Dam, D. Wang, T. L. Windus, J. Hammond, J. Autschbach, A. Woods,
    K. Bhaskaran-Nair, J. Brabec, K. Lopata, S. A. Fischer, S. Krishnamoorthy,
     M. Jacquelin, W. Ma, M. Klemm, O. Villa, Y. Chen, V. Anisimov, F. Aquino,
     S. Hirata, M. T. Hackler, E. Hermes, L. Jensen, J. E. Moore, J. C. Becca,
      V. Konjkov, T. Risthaus, M. Malagoli, A. Marenich, A. Otero-de-la-Roza,
        J. Mullin, P. Nichols, R. Peverati, J. Pittner, Y. Zhao, P.-D. Fan,
        A. Fonari, M. J. Williamson, R. J. Harrison, J. R. Rehr, M. Dupuis,
     D. Silverstein, D. M. A. Smith, J. Nieplocha, V. Tipparaju, M. Krishnan,
     B. E. Van Kuiken, A. Vazquez-Mayagoitia, M. Swart, Q. Wu, T. Van Voorhis,
     A. A. Auer, M. Nooijen, L. D. Crosby, E. Brown, G. Cisneros, G. I. Fann,
   H. Fruchtl, J. Garza, K. Hirao, R. A. Kendall, J. A. Nichols, K. Tsemekhman,
    K. Wolinski, J. Anchell, D. E. Bernholdt, P. Borowski, T. Clark, D. Clerc,
   H. Dachsel, M. J. O. Deegan, K. Dyall, D. Elwood, E. Glendening, M. Gutowski,
   A. C. Hess, J. Jaffe, B. G. Johnson, J. Ju, R. Kobayashi, R. Kutteh, Z. Lin,
   R. Littlefield, X. Long, B. Meng, T. Nakajima, S. Niu, L. Pollack, M. Rosing,
   K. Glaesemann, G. Sandrone, M. Stave, H. Taylor, G. Thomas, J. H. van Lenthe,
                               A. T. Wong, Z. Zhang.

 Total times  cpu:    35614.6s     wall:    35764.8s
