export TMOUT=5400
export TMPDIR=/tmp
export PTMPDIR=/tmp/ptmp
 argument  1 = ALA_TYR_1.nw
                                         
                                         


             Northwest Computational Chemistry Package (NWChem) 7.2.0
             --------------------------------------------------------


                    Environmental Molecular Sciences Laboratory
                       Pacific Northwest National Laboratory
                                Richland, WA 99352

                              Copyright (c) 1994-2022
                       Pacific Northwest National Laboratory
                            Battelle Memorial Institute

             NWChem is an open-source computational chemistry package
                        distributed under the terms of the
                      Educational Community License (ECL) 2.0
             A copy of the license is included with this distribution
                              in the LICENSE.TXT file

                                  ACKNOWLEDGMENT
                                  --------------

            This software and its documentation were developed at the
            EMSL at Pacific Northwest National Laboratory, a multiprogram
            national laboratory, operated for the U.S. Department of Energy
            by Battelle under Contract Number DE-AC05-76RL01830. Support
            for this work was provided by the Department of Energy Office
            of Biological and Environmental Research, Office of Basic
            Energy Sciences, and the Office of Advanced Scientific Computing.


           Job information
           ---------------

    hostname        = nova18-wide-42
    program         = /opt/rit/el9/20230413/app/linux-rhel9-x86_64_v3/gcc-11.2.1/nwchem-7.2.0-oxtctbuhfuzyfaoziquq6bki22grib3g/bin/nwchem
    date            = Mon Jun 30 21:18:22 2025

    compiled        = Wed_May_17_23:46:39_2023
    source          = /tmp/root/spack-stage/spack-stage-nwchem-7.2.0-oxtctbuhfuzyfaoziquq6bki22grib3g/spack-src
    nwchem branch   = 7.2.0
    nwchem revision = d0d141fd
    ga revision     = 5.8.0
    use scalapack   = T
    input           = ALA_TYR_1.nw
    prefix          = ALA_TYR_1.
    data base       = ./ALA_TYR_1.db
    status          = startup
    nproc           =        1
    time left       =     -1s



           Memory information
           ------------------

    heap     =   26214396 doubles =    200.0 Mbytes
    stack    =   26214401 doubles =    200.0 Mbytes
    global   =   52428800 doubles =    400.0 Mbytes (distinct from heap & stack)
    total    =  104857597 doubles =    800.0 Mbytes
    verify   = yes
    hardfail = no 


           Directory information
           ---------------------

  0 permanent = .
  0 scratch   = .




                                NWChem Input Module
                                -------------------



 Scaling coordinates for geometry "geometry" by  1.889725989
 (inverse scale =  0.529177249)

 C1  symmetry detected

          ------
          auto-z
          ------
  no constraints, skipping    0.0000000000000000     
  no constraints, skipping    0.0000000000000000     


                             Geometry "geometry" -> ""
                             -------------------------

 Output coordinates in angstroms (scale by  1.889725989 to convert to a.u.)

  No.       Tag          Charge          X              Y              Z
 ---- ---------------- ---------- -------------- -------------- --------------
    1 H                    1.0000     3.38915438     2.55496106    -0.96597092
    2 C                    6.0000     2.31816051     2.36379103    -0.94844551
    3 H                    1.0000     1.84922410     2.83333747    -1.81118231
    4 H                    1.0000     1.88474262     2.76447075    -0.03331454
    5 C                    6.0000     2.07422032     0.87583366    -1.00791863
    6 O                    8.0000     1.45030833     0.38511055    -1.94070513
    7 N                    7.0000     2.56819230     0.15092299    -0.00641466
    8 H                    1.0000     3.04660078     0.63904247     0.73230497
    9 C                    6.0000     2.49602662    -1.31236778     0.09296460
   10 H                    1.0000     2.70224279    -1.72297392    -0.89704525
   11 C                    6.0000     3.62174086    -1.77841719     1.03042520
   12 H                    1.0000     4.58344566    -1.41394759     0.66989811
   13 H                    1.0000     3.44532304    -1.40536309     2.04040758
   14 H                    1.0000     3.64741497    -2.86892130     1.05787756
   15 C                    6.0000     1.09738290    -1.84183181     0.50051533
   16 O                    8.0000     0.97325947    -2.66716796     1.40303548
   17 N                    7.0000     0.03406532    -1.35390381    -0.14382929
   18 H                    1.0000     0.21630484    -0.68772608    -0.88785617
   19 C                    6.0000    -1.37515076    -1.62228247     0.18467934
   20 H                    1.0000    -1.46727448    -1.58393116     1.26988504
   21 C                    6.0000    -2.24925754    -0.49402096    -0.39203922
   22 H                    1.0000    -2.28807360    -0.60900390    -1.47663834
   23 H                    1.0000    -3.26621988    -0.61176724    -0.01601340
   24 C                    6.0000    -1.78622811     0.91577101    -0.06128199
   25 C                    6.0000    -1.44404969     1.80780630    -1.09678427
   26 H                    1.0000    -1.49872462     1.48458976    -2.12836205
   27 C                    6.0000    -1.02532448     3.11783636    -0.79587158
   28 H                    1.0000    -0.76566559     3.79550915    -1.59403814
   29 C                    6.0000    -0.93433321     3.53405785     0.54955521
   30 O                    8.0000    -0.51529709     4.79133264     0.84879898
   31 H                    1.0000    -0.49819488     5.35676945     0.07677324
   32 C                    6.0000    -1.26684821     2.64028668     1.58720345
   33 H                    1.0000    -1.19729533     2.97084902     2.61224780
   34 C                    6.0000    -1.69961163     1.33511568     1.28167357
   35 H                    1.0000    -1.96795643     0.65648827     2.07903791
   36 C                    6.0000    -1.87832399    -3.02608187    -0.23213348
   37 O                    8.0000    -2.99490595    -3.19208496    -0.70705843
   38 N                    7.0000    -1.06623589    -4.06506357    -0.09238036
   39 H                    1.0000    -0.16885507    -3.93312777     0.35323115
   40 H                    1.0000    -1.39568506    -4.97344584    -0.37069114

      Atomic Mass 
      ----------- 

      H                  1.007825
      C                 12.000000
      O                 15.994910
      N                 14.003070


 Effective nuclear repulsion energy (a.u.)    1767.1851445291

            Nuclear Dipole moment (a.u.) 
            ----------------------------
        X                 Y               Z
 ---------------- ---------------- ----------------
    -0.0000000000     0.0000000000    -0.0000000000



                                Z-matrix (autoz)
                                -------- 

 Units are Angstrom for bonds and degrees for angles

      Type          Name      I     J     K     L     M      Value
      ----------- --------  ----- ----- ----- ----- ----- ----------
    1 Stretch                  1     2                       1.08806
    2 Stretch                  2     3                       1.08843
    3 Stretch                  2     4                       1.08897
    4 Stretch                  2     5                       1.50899
    5 Stretch                  5     6                       1.22481
    6 Stretch                  5     7                       1.33136
    7 Stretch                  7     8                       1.00640
    8 Stretch                  7     9                       1.46844
    9 Stretch                  9    10                       1.09144
   10 Stretch                  9    11                       1.53729
   11 Stretch                  9    15                       1.55004
   12 Stretch                 11    12                       1.08981
   13 Stretch                 11    13                       1.09103
   14 Stretch                 11    14                       1.09115
   15 Stretch                 15    16                       1.22928
   16 Stretch                 15    17                       1.33563
   17 Stretch                 17    18                       1.01517
   18 Stretch                 17    19                       1.47168
   19 Stretch                 19    20                       1.08978
   20 Stretch                 19    21                       1.53936
   21 Stretch                 19    36                       1.54841
   22 Stretch                 21    22                       1.09137
   23 Stretch                 21    23                       1.09063
   24 Stretch                 21    24                       1.52030
   25 Stretch                 24    25                       1.40893
   26 Stretch                 24    34                       1.40957
   27 Stretch                 25    26                       1.08241
   28 Stretch                 25    27                       1.40786
   29 Stretch                 27    28                       1.07876
   30 Stretch                 27    29                       1.41127
   31 Stretch                 29    30                       1.35863
   32 Stretch                 29    32                       1.40929
   33 Stretch                 30    31                       0.95710
   34 Stretch                 32    33                       1.07927
   35 Stretch                 32    34                       1.40858
   36 Stretch                 34    35                       1.08089
   37 Stretch                 36    37                       1.22469
   38 Stretch                 36    38                       1.32608
   39 Stretch                 38    39                       1.01058
   40 Stretch                 38    40                       1.00556
   41 Bend                     1     2     3               109.60383
   42 Bend                     1     2     4               109.91658
   43 Bend                     1     2     5               109.37412
   44 Bend                     2     5     6               120.49274
   45 Bend                     2     5     7               116.56879
   46 Bend                     3     2     4               109.62728
   47 Bend                     3     2     5               108.93495
   48 Bend                     4     2     5               109.36554
   49 Bend                     5     7     8               117.67468
   50 Bend                     5     7     9               125.11765
   51 Bend                     6     5     7               122.93846
   52 Bend                     7     9    10               107.71092
   53 Bend                     7     9    11               107.90162
   54 Bend                     7     9    15               113.73593
   55 Bend                     8     7     9               117.19376
   56 Bend                     9    11    12               110.06394
   57 Bend                     9    11    13               110.02586
   58 Bend                     9    11    14               109.60628
   59 Bend                     9    15    16               120.89623
   60 Bend                     9    15    17               117.82217
   61 Bend                    10     9    11               107.50175
   62 Bend                    10     9    15               106.28852
   63 Bend                    11     9    15               113.38173
   64 Bend                    12    11    13               109.54685
   65 Bend                    12    11    14               108.77145
   66 Bend                    13    11    14               108.79836
   67 Bend                    15    17    18               116.76855
   68 Bend                    15    17    19               126.01674
   69 Bend                    16    15    17               121.27056
   70 Bend                    17    19    20               107.26618
   71 Bend                    17    19    21               109.05322
   72 Bend                    17    19    36               114.60829
   73 Bend                    18    17    19               117.07559
   74 Bend                    19    21    22               108.37890
   75 Bend                    19    21    23               108.73441
   76 Bend                    19    21    24               115.16414
   77 Bend                    19    36    37               121.57087
   78 Bend                    19    36    38               118.87820
   79 Bend                    20    19    21               107.41428
   80 Bend                    20    19    36               105.81260
   81 Bend                    21    19    36               112.27880
   82 Bend                    21    24    25               120.07808
   83 Bend                    21    24    34               120.12370
   84 Bend                    22    21    23               107.34364
   85 Bend                    22    21    24               108.94996
   86 Bend                    23    21    24               108.00480
   87 Bend                    24    25    26               119.94159
   88 Bend                    24    25    27               120.28366
   89 Bend                    24    34    32               120.07893
   90 Bend                    24    34    35               120.05236
   91 Bend                    25    24    34               119.79816
   92 Bend                    25    27    28               119.86707
   93 Bend                    25    27    29               119.82647
   94 Bend                    26    25    27               119.77422
   95 Bend                    27    29    30               120.18457
   96 Bend                    27    29    32               119.97898
   97 Bend                    28    27    29               120.30336
   98 Bend                    29    30    31               111.99693
   99 Bend                    29    32    33               119.33050
  100 Bend                    29    32    34               120.02798
  101 Bend                    30    29    32               119.83385
  102 Bend                    32    34    35               119.86848
  103 Bend                    33    32    34               120.63750
  104 Bend                    36    38    39               119.20793
  105 Bend                    36    38    40               118.55304
  106 Bend                    37    36    38               119.53827
  107 Bend                    39    38    40               122.06685
  108 Torsion                  1     2     5     6        -118.76629
  109 Torsion                  1     2     5     7          61.25252
  110 Torsion                  2     5     7     8           1.60876
  111 Torsion                  2     5     7     9        -176.99262
  112 Torsion                  3     2     5     6           1.01142
  113 Torsion                  3     2     5     7        -178.96977
  114 Torsion                  4     2     5     6         120.81254
  115 Torsion                  4     2     5     7         -59.16865
  116 Torsion                  5     7     9    10          41.63241
  117 Torsion                  5     7     9    11         157.41244
  118 Torsion                  5     7     9    15         -75.88775
  119 Torsion                  6     5     7     8        -178.37192
  120 Torsion                  6     5     7     9           3.02670
  121 Torsion                  7     9    11    12         -55.64008
  122 Torsion                  7     9    11    13          65.17295
  123 Torsion                  7     9    11    14        -175.22876
  124 Torsion                  7     9    15    16        -131.16101
  125 Torsion                  7     9    15    17          47.64572
  126 Torsion                  8     7     9    10        -136.97505
  127 Torsion                  8     7     9    11         -21.19502
  128 Torsion                  8     7     9    15         105.50479
  129 Torsion                  9    15    17    18           2.19309
  130 Torsion                  9    15    17    19        -173.37370
  131 Torsion                 10     9    11    12          60.27697
  132 Torsion                 10     9    11    13        -178.91000
  133 Torsion                 10     9    11    14         -59.31171
  134 Torsion                 10     9    15    16         110.49854
  135 Torsion                 10     9    15    17         -70.69473
  136 Torsion                 11     9    15    16          -7.38516
  137 Torsion                 11     9    15    17         171.42157
  138 Torsion                 12    11     9    15         177.45368
  139 Torsion                 13    11     9    15         -61.73328
  140 Torsion                 14    11     9    15          57.86501
  141 Torsion                 15    17    19    20          41.91385
  142 Torsion                 15    17    19    21         157.94837
  143 Torsion                 15    17    19    36         -75.22925
  144 Torsion                 16    15    17    18        -179.00489
  145 Torsion                 16    15    17    19           5.42832
  146 Torsion                 17    19    21    22          72.38204
  147 Torsion                 17    19    21    23        -171.23424
  148 Torsion                 17    19    21    24         -49.90551
  149 Torsion                 17    19    36    37        -139.97526
  150 Torsion                 17    19    36    38          38.72417
  151 Torsion                 18    17    19    20        -133.64084
  152 Torsion                 18    17    19    21         -17.60632
  153 Torsion                 18    17    19    36         109.21606
  154 Torsion                 19    21    24    25         119.72780
  155 Torsion                 19    21    24    34         -60.35767
  156 Torsion                 19    36    38    39           5.09717
  157 Torsion                 19    36    38    40        -179.57175
  158 Torsion                 20    19    21    22        -171.67831
  159 Torsion                 20    19    21    23         -55.29458
  160 Torsion                 20    19    21    24          66.03414
  161 Torsion                 20    19    36    37         102.05440
  162 Torsion                 20    19    36    38         -79.24617
  163 Torsion                 21    19    36    37         -14.82875
  164 Torsion                 21    19    36    38         163.87068
  165 Torsion                 21    24    25    26          -0.79271
  166 Torsion                 21    24    25    27         179.47379
  167 Torsion                 21    24    34    32         179.81901
  168 Torsion                 21    24    34    35          -0.35784
  169 Torsion                 22    21    19    36         -55.75783
  170 Torsion                 22    21    24    25          -2.25265
  171 Torsion                 22    21    24    34         177.66188
  172 Torsion                 23    21    19    36          60.62589
  173 Torsion                 23    21    24    25        -118.54853
  174 Torsion                 23    21    24    34          61.36601
  175 Torsion                 24    21    19    36        -178.04539
  176 Torsion                 24    25    27    28        -179.95231
  177 Torsion                 24    25    27    29           0.68568
  178 Torsion                 24    34    32    29           0.72620
  179 Torsion                 24    34    32    33         179.99183
  180 Torsion                 25    24    34    32          -0.26621
  181 Torsion                 25    24    34    35         179.55694
  182 Torsion                 25    27    29    30         179.18785
  183 Torsion                 25    27    29    32          -0.22400
  184 Torsion                 26    25    24    34         179.29248
  185 Torsion                 26    25    27    28           0.31373
  186 Torsion                 26    25    27    29        -179.04827
  187 Torsion                 27    25    24    34          -0.44103
  188 Torsion                 27    29    30    31          12.68244
  189 Torsion                 27    29    32    33        -179.75558
  190 Torsion                 27    29    32    34          -0.48035
  191 Torsion                 28    27    29    30          -0.17133
  192 Torsion                 28    27    29    32        -179.58318
  193 Torsion                 29    32    34    35        -179.09728
  194 Torsion                 30    29    32    33           0.83049
  195 Torsion                 30    29    32    34        -179.89427
  196 Torsion                 31    30    29    32        -167.90485
  197 Torsion                 33    32    34    35           0.16835
  198 Torsion                 37    36    38    39        -176.17644
  199 Torsion                 37    36    38    40          -0.84536


            XYZ format geometry
            -------------------
    40
 geometry
 H                     3.38915438     2.55496106    -0.96597092
 C                     2.31816051     2.36379103    -0.94844551
 H                     1.84922410     2.83333747    -1.81118231
 H                     1.88474262     2.76447075    -0.03331454
 C                     2.07422032     0.87583366    -1.00791863
 O                     1.45030833     0.38511055    -1.94070513
 N                     2.56819230     0.15092299    -0.00641466
 H                     3.04660078     0.63904247     0.73230497
 C                     2.49602662    -1.31236778     0.09296460
 H                     2.70224279    -1.72297392    -0.89704525
 C                     3.62174086    -1.77841719     1.03042520
 H                     4.58344566    -1.41394759     0.66989811
 H                     3.44532304    -1.40536309     2.04040758
 H                     3.64741497    -2.86892130     1.05787756
 C                     1.09738290    -1.84183181     0.50051533
 O                     0.97325947    -2.66716796     1.40303548
 N                     0.03406532    -1.35390381    -0.14382929
 H                     0.21630484    -0.68772608    -0.88785617
 C                    -1.37515076    -1.62228247     0.18467934
 H                    -1.46727448    -1.58393116     1.26988504
 C                    -2.24925754    -0.49402096    -0.39203922
 H                    -2.28807360    -0.60900390    -1.47663834
 H                    -3.26621988    -0.61176724    -0.01601340
 C                    -1.78622811     0.91577101    -0.06128199
 C                    -1.44404969     1.80780630    -1.09678427
 H                    -1.49872462     1.48458976    -2.12836205
 C                    -1.02532448     3.11783636    -0.79587158
 H                    -0.76566559     3.79550915    -1.59403814
 C                    -0.93433321     3.53405785     0.54955521
 O                    -0.51529709     4.79133264     0.84879898
 H                    -0.49819488     5.35676945     0.07677324
 C                    -1.26684821     2.64028668     1.58720345
 H                    -1.19729533     2.97084902     2.61224780
 C                    -1.69961163     1.33511568     1.28167357
 H                    -1.96795643     0.65648827     2.07903791
 C                    -1.87832399    -3.02608187    -0.23213348
 O                    -2.99490595    -3.19208496    -0.70705843
 N                    -1.06623589    -4.06506357    -0.09238036
 H                    -0.16885507    -3.93312777     0.35323115
 H                    -1.39568506    -4.97344584    -0.37069114

 ==============================================================================
                                internuclear distances
 ------------------------------------------------------------------------------
       center one      |      center two      | atomic units |  angstroms
 ------------------------------------------------------------------------------
    2 C                |   1 H                |     2.05614  |     1.08806
    3 H                |   2 C                |     2.05684  |     1.08843
    4 H                |   2 C                |     2.05786  |     1.08897
    5 C                |   2 C                |     2.85158  |     1.50899
    6 O                |   5 C                |     2.31456  |     1.22481
    7 N                |   5 C                |     2.51590  |     1.33136
    8 H                |   7 N                |     1.90182  |     1.00640
    9 C                |   7 N                |     2.77494  |     1.46844
   10 H                |   9 C                |     2.06252  |     1.09144
   11 C                |   9 C                |     2.90506  |     1.53729
   12 H                |  11 C                |     2.05945  |     1.08981
   13 H                |  11 C                |     2.06176  |     1.09103
   14 H                |  11 C                |     2.06198  |     1.09115
   15 C                |   9 C                |     2.92916  |     1.55004
   16 O                |  15 C                |     2.32300  |     1.22928
   17 N                |  15 C                |     2.52397  |     1.33563
   18 H                |  17 N                |     1.91840  |     1.01517
   19 C                |  17 N                |     2.78107  |     1.47168
   20 H                |  19 C                |     2.05939  |     1.08978
   21 C                |  19 C                |     2.90898  |     1.53936
   22 H                |  21 C                |     2.06239  |     1.09137
   23 H                |  21 C                |     2.06099  |     1.09063
   24 C                |  21 C                |     2.87295  |     1.52030
   25 C                |  24 C                |     2.66249  |     1.40893
   26 H                |  25 C                |     2.04546  |     1.08241
   27 C                |  25 C                |     2.66046  |     1.40786
   28 H                |  27 C                |     2.03857  |     1.07876
   29 C                |  27 C                |     2.66692  |     1.41127
   30 O                |  29 C                |     2.56744  |     1.35863
   31 H                |  30 O                |     1.80865  |     0.95710
   32 C                |  29 C                |     2.66318  |     1.40929
   33 H                |  32 C                |     2.03953  |     1.07927
   34 C                |  24 C                |     2.66370  |     1.40957
   34 C                |  32 C                |     2.66183  |     1.40858
   35 H                |  34 C                |     2.04260  |     1.08089
   36 C                |  19 C                |     2.92607  |     1.54841
   37 O                |  36 C                |     2.31433  |     1.22469
   38 N                |  36 C                |     2.50594  |     1.32608
   39 H                |  38 N                |     1.90972  |     1.01058
   40 H                |  38 N                |     1.90023  |     1.00556
 ------------------------------------------------------------------------------
                         number of included internuclear distances:         40
 ==============================================================================



 ==============================================================================
                                 internuclear angles
 ------------------------------------------------------------------------------
        center 1       |       center 2       |       center 3       |  degrees
 ------------------------------------------------------------------------------
    1 H                |   2 C                |   3 H                |   109.60
    1 H                |   2 C                |   4 H                |   109.92
    1 H                |   2 C                |   5 C                |   109.37
    3 H                |   2 C                |   4 H                |   109.63
    3 H                |   2 C                |   5 C                |   108.93
    4 H                |   2 C                |   5 C                |   109.37
    2 C                |   5 C                |   6 O                |   120.49
    2 C                |   5 C                |   7 N                |   116.57
    6 O                |   5 C                |   7 N                |   122.94
    5 C                |   7 N                |   8 H                |   117.67
    5 C                |   7 N                |   9 C                |   125.12
    8 H                |   7 N                |   9 C                |   117.19
    7 N                |   9 C                |  10 H                |   107.71
    7 N                |   9 C                |  11 C                |   107.90
    7 N                |   9 C                |  15 C                |   113.74
   10 H                |   9 C                |  11 C                |   107.50
   10 H                |   9 C                |  15 C                |   106.29
   11 C                |   9 C                |  15 C                |   113.38
    9 C                |  11 C                |  12 H                |   110.06
    9 C                |  11 C                |  13 H                |   110.03
    9 C                |  11 C                |  14 H                |   109.61
   12 H                |  11 C                |  13 H                |   109.55
   12 H                |  11 C                |  14 H                |   108.77
   13 H                |  11 C                |  14 H                |   108.80
    9 C                |  15 C                |  16 O                |   120.90
    9 C                |  15 C                |  17 N                |   117.82
   16 O                |  15 C                |  17 N                |   121.27
   15 C                |  17 N                |  18 H                |   116.77
   15 C                |  17 N                |  19 C                |   126.02
   18 H                |  17 N                |  19 C                |   117.08
   17 N                |  19 C                |  20 H                |   107.27
   17 N                |  19 C                |  21 C                |   109.05
   17 N                |  19 C                |  36 C                |   114.61
   20 H                |  19 C                |  21 C                |   107.41
   20 H                |  19 C                |  36 C                |   105.81
   21 C                |  19 C                |  36 C                |   112.28
   19 C                |  21 C                |  22 H                |   108.38
   19 C                |  21 C                |  23 H                |   108.73
   19 C                |  21 C                |  24 C                |   115.16
   22 H                |  21 C                |  23 H                |   107.34
   22 H                |  21 C                |  24 C                |   108.95
   23 H                |  21 C                |  24 C                |   108.00
   21 C                |  24 C                |  25 C                |   120.08
   21 C                |  24 C                |  34 C                |   120.12
   25 C                |  24 C                |  34 C                |   119.80
   24 C                |  25 C                |  26 H                |   119.94
   24 C                |  25 C                |  27 C                |   120.28
   26 H                |  25 C                |  27 C                |   119.77
   25 C                |  27 C                |  28 H                |   119.87
   25 C                |  27 C                |  29 C                |   119.83
   28 H                |  27 C                |  29 C                |   120.30
   27 C                |  29 C                |  30 O                |   120.18
   27 C                |  29 C                |  32 C                |   119.98
   30 O                |  29 C                |  32 C                |   119.83
   29 C                |  30 O                |  31 H                |   112.00
   29 C                |  32 C                |  33 H                |   119.33
   29 C                |  32 C                |  34 C                |   120.03
   33 H                |  32 C                |  34 C                |   120.64
   24 C                |  34 C                |  32 C                |   120.08
   24 C                |  34 C                |  35 H                |   120.05
   32 C                |  34 C                |  35 H                |   119.87
   19 C                |  36 C                |  37 O                |   121.57
   19 C                |  36 C                |  38 N                |   118.88
   37 O                |  36 C                |  38 N                |   119.54
   36 C                |  38 N                |  39 H                |   119.21
   36 C                |  38 N                |  40 H                |   118.55
   39 H                |  38 N                |  40 H                |   122.07
 ------------------------------------------------------------------------------
                            number of included internuclear angles:         67
 ==============================================================================



  library name resolved from: environment
  library file name is: </opt/rit/el9/20230413/app/linux-rhel9-x86_64_v3/gcc-11.2.1/nwchem-7.2.0-oxtctbuhfuzyfaoziquq6bki22grib3g/share/nwchem/libraries/>
  


 Summary of "ao basis" -> "" (cartesian)
 ------------------------------------------------------------------------------
       Tag                 Description            Shells   Functions and Types
 ---------------- ------------------------------  ------  ---------------------
 *                        aug-cc-pvdz                 on all atoms 


                      Basis "ao basis" -> "ao basis" (cartesian)
                      -----
  H (Hydrogen)
  ------------
            Exponent  Coefficients 
       -------------- ---------------------------------------------------------
  1 S  1.30100000E+01  0.019685
  1 S  1.96200000E+00  0.137977
  1 S  4.44600000E-01  0.478148

  2 S  1.22000000E-01  1.000000

  3 S  2.97400000E-02  1.000000

  4 P  7.27000000E-01  1.000000

  5 P  1.41000000E-01  1.000000

  C (Carbon)
  ----------
            Exponent  Coefficients 
       -------------- ---------------------------------------------------------
  1 S  6.66500000E+03  0.000692
  1 S  1.00000000E+03  0.005329
  1 S  2.28000000E+02  0.027077
  1 S  6.47100000E+01  0.101718
  1 S  2.10600000E+01  0.274740
  1 S  7.49500000E+00  0.448564
  1 S  2.79700000E+00  0.285074
  1 S  5.21500000E-01  0.015204

  2 S  6.66500000E+03 -0.000146
  2 S  1.00000000E+03 -0.001154
  2 S  2.28000000E+02 -0.005725
  2 S  6.47100000E+01 -0.023312
  2 S  2.10600000E+01 -0.063955
  2 S  7.49500000E+00 -0.149981
  2 S  2.79700000E+00 -0.127262
  2 S  5.21500000E-01  0.544529

  3 S  1.59600000E-01  1.000000

  4 S  4.69000000E-02  1.000000

  5 P  9.43900000E+00  0.038109
  5 P  2.00200000E+00  0.209480
  5 P  5.45600000E-01  0.508557

  6 P  1.51700000E-01  1.000000

  7 P  4.04100000E-02  1.000000

  8 D  5.50000000E-01  1.000000

  9 D  1.51000000E-01  1.000000

  O (Oxygen)
  ----------
            Exponent  Coefficients 
       -------------- ---------------------------------------------------------
  1 S  1.17200000E+04  0.000710
  1 S  1.75900000E+03  0.005470
  1 S  4.00800000E+02  0.027837
  1 S  1.13700000E+02  0.104800
  1 S  3.70300000E+01  0.283062
  1 S  1.32700000E+01  0.448719
  1 S  5.02500000E+00  0.270952
  1 S  1.01300000E+00  0.015458

  2 S  1.17200000E+04 -0.000160
  2 S  1.75900000E+03 -0.001263
  2 S  4.00800000E+02 -0.006267
  2 S  1.13700000E+02 -0.025716
  2 S  3.70300000E+01 -0.070924
  2 S  1.32700000E+01 -0.165411
  2 S  5.02500000E+00 -0.116955
  2 S  1.01300000E+00  0.557368

  3 S  3.02300000E-01  1.000000

  4 S  7.89600000E-02  1.000000

  5 P  1.77000000E+01  0.043018
  5 P  3.85400000E+00  0.228913
  5 P  1.04600000E+00  0.508728

  6 P  2.75300000E-01  1.000000

  7 P  6.85600000E-02  1.000000

  8 D  1.18500000E+00  1.000000

  9 D  3.32000000E-01  1.000000

  N (Nitrogen)
  ------------
            Exponent  Coefficients 
       -------------- ---------------------------------------------------------
  1 S  9.04600000E+03  0.000700
  1 S  1.35700000E+03  0.005389
  1 S  3.09300000E+02  0.027406
  1 S  8.77300000E+01  0.103207
  1 S  2.85600000E+01  0.278723
  1 S  1.02100000E+01  0.448540
  1 S  3.83800000E+00  0.278238
  1 S  7.46600000E-01  0.015440

  2 S  9.04600000E+03 -0.000153
  2 S  1.35700000E+03 -0.001208
  2 S  3.09300000E+02 -0.005992
  2 S  8.77300000E+01 -0.024544
  2 S  2.85600000E+01 -0.067459
  2 S  1.02100000E+01 -0.158078
  2 S  3.83800000E+00 -0.121831
  2 S  7.46600000E-01  0.549003

  3 S  2.24800000E-01  1.000000

  4 S  6.12400000E-02  1.000000

  5 P  1.35500000E+01  0.039919
  5 P  2.91700000E+00  0.217169
  5 P  7.97300000E-01  0.510319

  6 P  2.18500000E-01  1.000000

  7 P  5.61100000E-02  1.000000

  8 D  8.17000000E-01  1.000000

  9 D  2.30000000E-01  1.000000



 Summary of "ao basis" -> "ao basis" (cartesian)
 ------------------------------------------------------------------------------
       Tag                 Description            Shells   Functions and Types
 ---------------- ------------------------------  ------  ---------------------
 H                        aug-cc-pvdz                5        9   3s2p
 C                        aug-cc-pvdz                9       25   4s3p2d
 O                        aug-cc-pvdz                9       25   4s3p2d
 N                        aug-cc-pvdz                9       25   4s3p2d


                                 NWChem SCF Module
                                 -----------------



  ao basis        = "ao basis"
  functions       =   696
  atoms           =    40
  closed shells   =    78
  open shells     =     0
  charge          =   0.00
  wavefunction    = RHF 
  input vectors   = atomic
  output vectors  = ./ALA_TYR_1.movecs
  use symmetry    = F
  symmetry adapt  = F


 Summary of "ao basis" -> "ao basis" (cartesian)
 ------------------------------------------------------------------------------
       Tag                 Description            Shells   Functions and Types
 ---------------- ------------------------------  ------  ---------------------
 H                        aug-cc-pvdz                5        9   3s2p
 C                        aug-cc-pvdz                9       25   4s3p2d
 O                        aug-cc-pvdz                9       25   4s3p2d
 N                        aug-cc-pvdz                9       25   4s3p2d



 Forming initial guess at       0.8s


 !! The overlap matrix has  14 vectors deemed linearly dependent with
    eigenvalues:
 9.29D-07 1.51D-06 1.73D-06 2.29D-06 2.80D-06 3.47D-06 3.69D-06 4.33D-06
 4.92D-06 6.56D-06 7.27D-06 8.05D-06 9.22D-06 9.89D-06


      Superposition of Atomic Density Guess
      -------------------------------------

 Sum of atomic energies:        -998.80105847

      Non-variational initial energy
      ------------------------------

 Total energy =   -1012.686877
 1-e energy   =   -4869.659183
 2-e energy   =    2089.787161
 HOMO         =      -0.254275
 LUMO         =      -0.024822


 Starting SCF solution at    1083.1s



 ----------------------------------------------
         Quadratically convergent ROHF

 Convergence threshold     :          1.000E-04
 Maximum no. of iterations :           30
 Final Fock-matrix accuracy:          1.000E-10
 ----------------------------------------------


              iter       energy          gnorm     gmax       time
             ----- ------------------- --------- --------- --------
                 1    -1003.7866641638  2.56D+00  1.39D-01   2225.9
                 2    -1004.1448570342  9.21D-01  4.34D-02   4520.1
                 3    -1004.2172202554  6.57D-02  3.73D-03   7856.8
                 4    -1004.2178475126  2.07D-03  9.80D-05  14024.9
                 5    -1004.2178481110  6.26D-06  1.15D-06  21859.7


       Final RHF  results 
       ------------------ 

         Total SCF energy =  -1004.217848110999
      One-electron energy =  -4884.395137546670
      Two-electron energy =   2112.992144906616
 Nuclear repulsion energy =   1767.185144529056

        Time for solution =  20780.9s


             Final eigenvalues
             -----------------

              1      
    1  -20.6084
    2  -20.5442
    3  -20.5399
    4  -20.5122
    5  -15.6188
    6  -15.5961
    7  -15.5735
    8  -11.3739
    9  -11.3688
   10  -11.3468
   11  -11.3207
   12  -11.3121
   13  -11.2963
   14  -11.2568
   15  -11.2552
   16  -11.2535
   17  -11.2505
   18  -11.2503
   19  -11.2496
   20  -11.2495
   21  -11.2424
   22   -1.4217
   23   -1.4107
   24   -1.3993
   25   -1.3741
   26   -1.2672
   27   -1.2447
   28   -1.2020
   29   -1.1543
   30   -1.0785
   31   -1.0607
   32   -1.0254
   33   -1.0050
   34   -0.9994
   35   -0.9141
   36   -0.8902
   37   -0.8533
   38   -0.8284
   39   -0.8153
   40   -0.8026
   41   -0.7784
   42   -0.7466
   43   -0.7365
   44   -0.7282
   45   -0.7015
   46   -0.6876
   47   -0.6795
   48   -0.6722
   49   -0.6629
   50   -0.6443
   51   -0.6309
   52   -0.6167
   53   -0.6099
   54   -0.6014
   55   -0.6004
   56   -0.5972
   57   -0.5873
   58   -0.5848
   59   -0.5755
   60   -0.5743
   61   -0.5644
   62   -0.5514
   63   -0.5458
   64   -0.5421
   65   -0.5401
   66   -0.5224
   67   -0.5102
   68   -0.4981
   69   -0.4900
   70   -0.4767
   71   -0.4575
   72   -0.4411
   73   -0.4343
   74   -0.4082
   75   -0.3956
   76   -0.3862
   77   -0.3460
   78   -0.3127
   79    0.0226
   80    0.0308
   81    0.0371
   82    0.0400
   83    0.0478
   84    0.0495
   85    0.0531
   86    0.0583
   87    0.0596
   88    0.0671

                       ROHF Final Molecular Orbital Analysis
                       -------------------------------------

 Vector   22  Occ=2.000000D+00  E=-1.421693D+00
              MO Center= -5.9D-01,  4.6D+00,  7.0D-01, r^2= 6.0D-01
   Bfn.  Coefficient  Atom+Function         Bfn.  Coefficient  Atom+Function  
  ----- ------------  ---------------      ----- ------------  ---------------
   504      0.463414  30 O  s               503      0.409704  30 O  s         
   480     -0.232537  29 C  s               527      0.194427  31 H  s         

 Vector   23  Occ=2.000000D+00  E=-1.410747D+00
              MO Center=  1.6D+00,  5.5D-02, -1.1D+00, r^2= 2.7D+00
   Bfn.  Coefficient  Atom+Function         Bfn.  Coefficient  Atom+Function  
  ----- ------------  ---------------      ----- ------------  ---------------
    80      0.327068   6 O  s                79      0.317915   6 O  s         
    54      0.224476   5 C  s                12      0.170423   2 C  s         

 Vector   24  Occ=2.000000D+00  E=-1.399345D+00
              MO Center=  9.7D-01, -1.9D+00,  5.7D-01, r^2= 3.1D+00
   Bfn.  Coefficient  Atom+Function         Bfn.  Coefficient  Atom+Function  
  ----- ------------  ---------------      ----- ------------  ---------------
   250      0.345742  16 O  s               249      0.325102  16 O  s         
   224      0.217952  15 C  s         

 Vector   25  Occ=2.000000D+00  E=-1.374145D+00
              MO Center= -2.4D+00, -3.2D+00, -4.6D-01, r^2= 1.2D+00
   Bfn.  Coefficient  Atom+Function         Bfn.  Coefficient  Atom+Function  
  ----- ------------  ---------------      ----- ------------  ---------------
   631      0.372308  37 O  s               630      0.349963  37 O  s         
   605      0.243494  36 C  s         

 Vector   26  Occ=2.000000D+00  E=-1.267228D+00
              MO Center=  2.3D+00, -1.3D-02, -2.7D-01, r^2= 2.1D+00
   Bfn.  Coefficient  Atom+Function         Bfn.  Coefficient  Atom+Function  
  ----- ------------  ---------------      ----- ------------  ---------------
   105      0.391328   7 N  s               104      0.334711   7 N  s         
    80     -0.221449   6 O  s                79     -0.181852   6 O  s         
    59      0.166398   5 C  pz              128      0.154165   8 H  s         

 Vector   27  Occ=2.000000D+00  E=-1.244688D+00
              MO Center=  8.9D-02, -1.5D+00,  5.8D-02, r^2= 2.4D+00
   Bfn.  Coefficient  Atom+Function         Bfn.  Coefficient  Atom+Function  
  ----- ------------  ---------------      ----- ------------  ---------------
   275      0.386804  17 N  s               274      0.332614  17 N  s         
   250     -0.201065  16 O  s               309     -0.158605  19 C  s         
   249     -0.157601  16 O  s         

 Vector   28  Occ=2.000000D+00  E=-1.202007D+00
              MO Center= -1.3D+00, -3.7D+00, -1.6D-01, r^2= 1.6D+00
   Bfn.  Coefficient  Atom+Function         Bfn.  Coefficient  Atom+Function  
  ----- ------------  ---------------      ----- ------------  ---------------
   656      0.395476  38 N  s               655      0.368114  38 N  s         
   631     -0.209023  37 O  s               608      0.179687  36 C  px        
   630     -0.174181  37 O  s               679      0.164735  39 H  s         
   688      0.157955  40 H  s         

 Vector   29  Occ=2.000000D+00  E=-1.154339D+00
              MO Center= -1.4D+00,  1.9D+00,  1.8D-01, r^2= 2.9D+00
   Bfn.  Coefficient  Atom+Function         Bfn.  Coefficient  Atom+Function  
  ----- ------------  ---------------      ----- ------------  ---------------
   385      0.203296  24 C  s               571      0.179363  34 C  s         
   410      0.177892  25 C  s               537      0.156615  32 C  s         
   444      0.155756  27 C  s         

 Vector   30  Occ=2.000000D+00  E=-1.078470D+00
              MO Center=  1.1D+00, -4.3D-01,  5.3D-02, r^2= 8.1D+00
   Bfn.  Coefficient  Atom+Function         Bfn.  Coefficient  Atom+Function  
  ----- ------------  ---------------      ----- ------------  ---------------
   138      0.204326   9 C  s               172      0.152242  11 C  s         

 Vector   31  Occ=2.000000D+00  E=-1.060730D+00
              MO Center=  4.9D-02,  2.4D-01,  3.5D-02, r^2= 9.6D+00
   Bfn.  Coefficient  Atom+Function         Bfn.  Coefficient  Atom+Function  
  ----- ------------  ---------------      ----- ------------  ---------------
   342      0.191301  21 C  s               387     -0.166869  24 C  s         
   446      0.161639  27 C  s               144      0.157798   9 C  px        

 Vector   32  Occ=2.000000D+00  E=-1.025418D+00
              MO Center= -1.3D+00,  2.3D+00,  2.4D-01, r^2= 3.0D+00
   Bfn.  Coefficient  Atom+Function         Bfn.  Coefficient  Atom+Function  
  ----- ------------  ---------------      ----- ------------  ---------------
   446      0.279919  27 C  s               539     -0.260000  32 C  s         
   412      0.221732  25 C  s               537      0.222711  32 C  s         
   410     -0.214566  25 C  s               444     -0.208930  27 C  s         
   571      0.198793  34 C  s               573     -0.164313  34 C  s         
   469     -0.155258  28 H  s               435     -0.153366  26 H  s         

 Vector   33  Occ=2.000000D+00  E=-1.005022D+00
              MO Center=  2.4D+00,  1.2D+00, -5.3D-01, r^2= 5.0D+00
   Bfn.  Coefficient  Atom+Function         Bfn.  Coefficient  Atom+Function  
  ----- ------------  ---------------      ----- ------------  ---------------
    11      0.316760   2 C  s                58      0.172995   5 C  py        
    55      0.161302   5 C  s               172      0.157222  11 C  s         

 Vector   34  Occ=2.000000D+00  E=-9.993566D-01
              MO Center= -9.0D-01,  4.5D-01,  2.3D-01, r^2= 8.6D+00
   Bfn.  Coefficient  Atom+Function         Bfn.  Coefficient  Atom+Function  
  ----- ------------  ---------------      ----- ------------  ---------------
   308      0.208708  19 C  s               387      0.176514  24 C  s         
   385     -0.172181  24 C  s               478      0.172297  29 C  s         

 Vector   35  Occ=2.000000D+00  E=-9.140996D-01
              MO Center=  4.7D-01, -4.0D-01,  2.7D-01, r^2= 1.1D+01
   Bfn.  Coefficient  Atom+Function         Bfn.  Coefficient  Atom+Function  
  ----- ------------  ---------------      ----- ------------  ---------------
   139      0.266419   9 C  s               144     -0.231523   9 C  px        
   342      0.194138  21 C  s               172     -0.184491  11 C  s         
   225     -0.177873  15 C  s               173     -0.160735  11 C  s         
   315      0.156414  19 C  py        

 Vector   36  Occ=2.000000D+00  E=-8.901592D-01
              MO Center=  3.6D-01, -8.1D-01,  2.6D-01, r^2= 1.1D+01
   Bfn.  Coefficient  Atom+Function         Bfn.  Coefficient  Atom+Function  
  ----- ------------  ---------------      ----- ------------  ---------------
   315      0.219310  19 C  py              139     -0.193208   9 C  s         
   309     -0.183348  19 C  s               172      0.166816  11 C  s         
   144      0.150391   9 C  px        

 Vector   37  Occ=2.000000D+00  E=-8.533003D-01
              MO Center= -1.3D+00,  2.2D+00,  4.5D-02, r^2= 5.3D+00
   Bfn.  Coefficient  Atom+Function         Bfn.  Coefficient  Atom+Function  
  ----- ------------  ---------------      ----- ------------  ---------------
   539      0.265357  32 C  s               483     -0.221115  29 C  pz        
   309     -0.208414  19 C  s               538     -0.207047  32 C  s         
   445      0.204513  27 C  s               466      0.201670  27 C  dyz       
   435     -0.196397  26 H  s               410     -0.188488  25 C  s         
   444      0.169597  27 C  s               390      0.167363  24 C  pz        

 Vector   38  Occ=2.000000D+00  E=-8.283847D-01
              MO Center=  2.0D+00, -1.4D-01, -2.0D-01, r^2= 5.2D+00
   Bfn.  Coefficient  Atom+Function         Bfn.  Coefficient  Atom+Function  
  ----- ------------  ---------------      ----- ------------  ---------------
   109      0.264238   7 N  pz              139     -0.216802   9 C  s         
   128      0.208971   8 H  s                54     -0.206010   5 C  s         
    80      0.163116   6 O  s                56      0.157643   5 C  s         
   309     -0.154028  19 C  s         

 Vector   39  Occ=2.000000D+00  E=-8.153491D-01
              MO Center= -9.5D-01,  1.3D+00,  3.1D-01, r^2= 1.0D+01
   Bfn.  Coefficient  Atom+Function         Bfn.  Coefficient  Atom+Function  
  ----- ------------  ---------------      ----- ------------  ---------------
   539      0.356710  32 C  s               387     -0.285467  24 C  s         
   480     -0.240878  29 C  s               507     -0.205016  30 O  py        
   412      0.168934  25 C  s               385      0.153120  24 C  s         

 Vector   40  Occ=2.000000D+00  E=-8.025578D-01
              MO Center=  5.1D-01, -5.9D-01,  7.0D-02, r^2= 7.4D+00
   Bfn.  Coefficient  Atom+Function         Bfn.  Coefficient  Atom+Function  
  ----- ------------  ---------------      ----- ------------  ---------------
   309      0.204319  19 C  s               277      0.183408  17 N  px        
   128      0.179303   8 H  s               144     -0.165795   9 C  px        
   224      0.164761  15 C  s               230     -0.165453  15 C  px        
    55     -0.159373   5 C  s               109      0.159029   7 N  pz        
   250     -0.154239  16 O  s               298     -0.151510  18 H  s         

 Vector   41  Occ=2.000000D+00  E=-7.783548D-01
              MO Center= -9.0D-01, -2.4D+00, -7.5D-02, r^2= 5.6D+00
   Bfn.  Coefficient  Atom+Function         Bfn.  Coefficient  Atom+Function  
  ----- ------------  ---------------      ----- ------------  ---------------
   659     -0.215889  38 N  py              225      0.211935  15 C  s         
   315      0.196892  19 C  py              298     -0.195627  18 H  s         
   605     -0.188663  36 C  s               658      0.185785  38 N  px        
   279      0.181591  17 N  pz              612      0.180475  36 C  py        
   679      0.165065  39 H  s               631      0.163301  37 O  s         

 Vector   42  Occ=2.000000D+00  E=-7.466116D-01
              MO Center= -1.0D+00,  2.9D+00,  3.6D-01, r^2= 6.1D+00
   Bfn.  Coefficient  Atom+Function         Bfn.  Coefficient  Atom+Function  
  ----- ------------  ---------------      ----- ------------  ---------------
   507      0.275771  30 O  py              527      0.237977  31 H  s         
   482     -0.211659  29 C  py              446      0.186342  27 C  s         
   595     -0.177138  35 H  s               538      0.176114  32 C  s         
   596     -0.169829  35 H  s               449      0.168499  27 C  pz        
   508     -0.156094  30 O  pz        

 Vector   43  Occ=2.000000D+00  E=-7.364872D-01
              MO Center=  6.8D-01, -1.6D+00,  1.9D-01, r^2= 8.2D+00
   Bfn.  Coefficient  Atom+Function         Bfn.  Coefficient  Atom+Function  
  ----- ------------  ---------------      ----- ------------  ---------------
   144      0.237156   9 C  px              225      0.205184  15 C  s         
   227     -0.203928  15 C  px              145      0.191825   9 C  py        
   139     -0.168410   9 C  s               688     -0.166586  40 H  s         

 Vector   44  Occ=2.000000D+00  E=-7.282320D-01
              MO Center= -2.5D-01, -2.3D+00, -4.1D-02, r^2= 6.8D+00
   Bfn.  Coefficient  Atom+Function         Bfn.  Coefficient  Atom+Function  
  ----- ------------  ---------------      ----- ------------  ---------------
   225      0.346196  15 C  s               658     -0.269358  38 N  px        
   139     -0.248705   9 C  s               679     -0.247344  39 H  s         
   144      0.223018   9 C  px              609     -0.201059  36 C  py        
   314      0.185280  19 C  px              145      0.181325   9 C  py        
   279      0.156329  17 N  pz        

 Vector   45  Occ=2.000000D+00  E=-7.014618D-01
              MO Center=  1.3D+00,  7.5D-02, -4.9D-01, r^2= 8.2D+00
   Bfn.  Coefficient  Atom+Function         Bfn.  Coefficient  Atom+Function  
  ----- ------------  ---------------      ----- ------------  ---------------
    18      0.213565   2 C  py               83     -0.192762   6 O  py        
    15      0.185787   2 C  py               55      0.173753   5 C  s         
    58     -0.168768   5 C  py              314     -0.165732  19 C  px        

 Vector   46  Occ=2.000000D+00  E=-6.875678D-01
              MO Center=  1.9D+00, -2.9D-01, -6.8D-01, r^2= 4.9D+00
   Bfn.  Coefficient  Atom+Function         Bfn.  Coefficient  Atom+Function  
  ----- ------------  ---------------      ----- ------------  ---------------
    80      0.222490   6 O  s                84     -0.200347   6 O  pz        
    12     -0.184380   2 C  s                83     -0.182997   6 O  py        
   108      0.180029   7 N  py              145     -0.177634   9 C  py        
   142     -0.176400   9 C  py              162      0.170301  10 H  s         
    57      0.155474   5 C  px        

 Vector   47  Occ=2.000000D+00  E=-6.794632D-01
              MO Center= -4.1D-01,  4.9D-01,  4.3D-02, r^2= 1.2D+01
   Bfn.  Coefficient  Atom+Function         Bfn.  Coefficient  Atom+Function  
  ----- ------------  ---------------      ----- ------------  ---------------
   539      0.200057  32 C  s               508      0.179304  30 O  pz        
   414      0.160963  25 C  py              448     -0.154396  27 C  py        

 Vector   48  Occ=2.000000D+00  E=-6.721610D-01
              MO Center= -1.3D+00, -7.1D-02,  6.0D-02, r^2= 1.2D+01
   Bfn.  Coefficient  Atom+Function         Bfn.  Coefficient  Atom+Function  
  ----- ------------  ---------------      ----- ------------  ---------------
   659      0.187931  38 N  py              387      0.175391  24 C  s         
   688     -0.173156  40 H  s               407     -0.157668  24 C  dyz       

 Vector   49  Occ=2.000000D+00  E=-6.629348D-01
              MO Center= -1.7D-01, -4.8D-01,  3.8D-01, r^2= 1.0D+01
   Bfn.  Coefficient  Atom+Function         Bfn.  Coefficient  Atom+Function  
  ----- ------------  ---------------      ----- ------------  ---------------
   250      0.192581  16 O  s               254      0.178829  16 O  pz        
   539     -0.174969  32 C  s               313      0.172062  19 C  pz        
   508     -0.165987  30 O  pz              253     -0.162485  16 O  py        
   332      0.161146  20 H  s               277      0.154000  17 N  px        
   314     -0.150516  19 C  px        

 Vector   50  Occ=2.000000D+00  E=-6.442928D-01
              MO Center= -1.5D+00,  7.8D-01,  1.3D-02, r^2= 1.1D+01
   Bfn.  Coefficient  Atom+Function         Bfn.  Coefficient  Atom+Function  
  ----- ------------  ---------------      ----- ------------  ---------------
   468      0.228478  28 H  s               469      0.199131  28 H  s         
   561      0.186823  33 H  s               449     -0.160382  27 C  pz        
   542      0.150022  32 C  pz        

 Vector   51  Occ=2.000000D+00  E=-6.309409D-01
              MO Center=  1.9D+00,  1.4D+00, -6.1D-01, r^2= 5.7D+00
   Bfn.  Coefficient  Atom+Function         Bfn.  Coefficient  Atom+Function  
  ----- ------------  ---------------      ----- ------------  ---------------
    14      0.256276   2 C  px              139     -0.254667   9 C  s         
     1      0.223350   1 H  s                44     -0.206137   4 H  s         
    82      0.168217   6 O  px               57      0.164393   5 C  px        
    16     -0.153049   2 C  pz        

 Vector   52  Occ=2.000000D+00  E=-6.167196D-01
              MO Center= -4.4D-01,  4.2D-01,  3.6D-01, r^2= 1.1D+01
   Bfn.  Coefficient  Atom+Function         Bfn.  Coefficient  Atom+Function  
  ----- ------------  ---------------      ----- ------------  ---------------
   435     -0.205810  26 H  s               254      0.195047  16 O  pz        
   539      0.195844  32 C  s               407      0.188678  24 C  dyz       
   412      0.184880  25 C  s               445      0.179865  27 C  s         
   575      0.177313  34 C  py              541     -0.171047  32 C  py        
   596     -0.171123  35 H  s               415      0.166337  25 C  pz        

 Vector   53  Occ=2.000000D+00  E=-6.098922D-01
              MO Center=  1.3D-01, -2.7D-01,  4.3D-01, r^2= 1.1D+01
   Bfn.  Coefficient  Atom+Function         Bfn.  Coefficient  Atom+Function  
  ----- ------------  ---------------      ----- ------------  ---------------
   254     -0.174635  16 O  pz              253      0.160438  16 O  py        

 Vector   54  Occ=2.000000D+00  E=-6.014369D-01
              MO Center=  9.9D-01,  2.0D-01, -4.8D-01, r^2= 1.1D+01
   Bfn.  Coefficient  Atom+Function         Bfn.  Coefficient  Atom+Function  
  ----- ------------  ---------------      ----- ------------  ---------------
    84      0.246090   6 O  pz               58     -0.191667   5 C  py        
    15      0.184239   2 C  py              226      0.178858  15 C  s         
   506     -0.164252  30 O  px              163     -0.157716  10 H  s         
    80     -0.151993   6 O  s         

 Vector   55  Occ=2.000000D+00  E=-6.004071D-01
              MO Center= -2.7D-01,  2.1D+00,  2.9D-01, r^2= 1.1D+01
   Bfn.  Coefficient  Atom+Function         Bfn.  Coefficient  Atom+Function  
  ----- ------------  ---------------      ----- ------------  ---------------
   506      0.355891  30 O  px              509      0.267303  30 O  px        

 Vector   56  Occ=2.000000D+00  E=-5.972408D-01
              MO Center= -1.0D+00,  2.2D+00,  1.6D-01, r^2= 5.8D+00
   Bfn.  Coefficient  Atom+Function         Bfn.  Coefficient  Atom+Function  
  ----- ------------  ---------------      ----- ------------  ---------------
   539      0.273361  32 C  s               542     -0.234423  32 C  pz        
   562     -0.233946  33 H  s               415     -0.229704  25 C  pz        
   446     -0.226802  27 C  s               435      0.218170  26 H  s         
   469      0.203665  28 H  s               434      0.202424  26 H  s         
   561     -0.200200  33 H  s               445     -0.192383  27 C  s         

 Vector   57  Occ=2.000000D+00  E=-5.872765D-01
              MO Center=  1.7D-02, -6.4D-02, -3.1D-01, r^2= 1.4D+01
   Bfn.  Coefficient  Atom+Function         Bfn.  Coefficient  Atom+Function  
  ----- ------------  ---------------      ----- ------------  ---------------
    36      0.246411   3 H  s                56     -0.224616   5 C  s         
   633     -0.205642  37 O  px              608      0.177460  36 C  px        
    16     -0.175486   2 C  pz               84     -0.163630   6 O  pz        
   174      0.152633  11 C  s               506      0.150435  30 O  px        

 Vector   58  Occ=2.000000D+00  E=-5.848397D-01
              MO Center=  8.1D-01,  3.2D-01, -3.2D-01, r^2= 1.4D+01
   Bfn.  Coefficient  Atom+Function         Bfn.  Coefficient  Atom+Function  
  ----- ------------  ---------------      ----- ------------  ---------------
    36     -0.244184   3 H  s                16      0.236095   2 C  pz        
    35     -0.230830   3 H  s               176      0.171907  11 C  py        
   214     -0.158685  14 H  s               633     -0.155147  37 O  px        

 Vector   59  Occ=2.000000D+00  E=-5.754849D-01
              MO Center= -9.2D-01,  1.4D+00,  2.8D-01, r^2= 1.3D+01
   Bfn.  Coefficient  Atom+Function         Bfn.  Coefficient  Atom+Function  
  ----- ------------  ---------------      ----- ------------  ---------------
   508      0.291370  30 O  pz              511      0.207389  30 O  pz        
    56      0.200194   5 C  s               367      0.177387  22 H  s         
   507      0.165077  30 O  py              375     -0.151496  23 H  s         

 Vector   60  Occ=2.000000D+00  E=-5.742707D-01
              MO Center= -2.2D-01, -6.6D-01,  2.4D-02, r^2= 1.2D+01
   Bfn.  Coefficient  Atom+Function         Bfn.  Coefficient  Atom+Function  
  ----- ------------  ---------------      ----- ------------  ---------------
   345      0.211629  21 C  px              175      0.180326  11 C  px        
   343      0.170110  21 C  s               196      0.168327  12 H  s         
   226     -0.165350  15 C  s               375     -0.157474  23 H  s         
   348      0.150814  21 C  px        

 Vector   61  Occ=2.000000D+00  E=-5.643730D-01
              MO Center=  1.3D+00, -1.6D+00,  7.8D-01, r^2= 8.2D+00
   Bfn.  Coefficient  Atom+Function         Bfn.  Coefficient  Atom+Function  
  ----- ------------  ---------------      ----- ------------  ---------------
   174      0.288247  11 C  s               215     -0.244317  14 H  s         
   205      0.218527  13 H  s                56     -0.192586   5 C  s         
   139     -0.192530   9 C  s               177      0.190985  11 C  pz        
   253     -0.191690  16 O  py              176      0.183935  11 C  py        
   309      0.178667  19 C  s               225      0.175627  15 C  s         

 Vector   62  Occ=2.000000D+00  E=-5.513729D-01
              MO Center=  1.9D+00,  2.8D-02, -1.2D-01, r^2= 8.7D+00
   Bfn.  Coefficient  Atom+Function         Bfn.  Coefficient  Atom+Function  
  ----- ------------  ---------------      ----- ------------  ---------------
    14      0.201575   2 C  px              215      0.180580  14 H  s         
   139      0.174702   9 C  s                 1      0.173351   1 H  s         
    45     -0.171798   4 H  s                35     -0.164391   3 H  s         
   176     -0.159739  11 C  py               76      0.155950   5 C  dyz       
    36     -0.153908   3 H  s               214      0.153214  14 H  s         

 Vector   63  Occ=2.000000D+00  E=-5.457721D-01
              MO Center=  1.2D-01, -1.3D+00,  1.2D-01, r^2= 1.3D+01
   Bfn.  Coefficient  Atom+Function         Bfn.  Coefficient  Atom+Function  
  ----- ------------  ---------------      ----- ------------  ---------------
   197      0.181750  12 H  s               196      0.179787  12 H  s         
   610     -0.171334  36 C  pz              176      0.163784  11 C  py        
   376      0.164090  23 H  s               214     -0.157440  14 H  s         
   215     -0.153018  14 H  s         

 Vector   64  Occ=2.000000D+00  E=-5.420869D-01
              MO Center=  2.0D-01, -1.5D+00,  1.4D-01, r^2= 1.2D+01
   Bfn.  Coefficient  Atom+Function         Bfn.  Coefficient  Atom+Function  
  ----- ------------  ---------------      ----- ------------  ---------------
   197      0.210778  12 H  s               196      0.203694  12 H  s         
   635      0.194815  37 O  pz              175      0.187600  11 C  px        
   660      0.175944  38 N  pz              610      0.157255  36 C  pz        

 Vector   65  Occ=2.000000D+00  E=-5.400571D-01
              MO Center=  1.9D+00,  3.9D-01, -4.2D-01, r^2= 7.3D+00
   Bfn.  Coefficient  Atom+Function         Bfn.  Coefficient  Atom+Function  
  ----- ------------  ---------------      ----- ------------  ---------------
     2      0.214257   1 H  s                44     -0.206636   4 H  s         
    82     -0.203363   6 O  px               56     -0.197084   5 C  s         
    16     -0.187507   2 C  pz               45     -0.161525   4 H  s         
   106      0.156448   7 N  s                85     -0.155335   6 O  px        

 Vector   66  Occ=2.000000D+00  E=-5.223832D-01
              MO Center=  2.3D+00, -1.4D+00,  4.0D-01, r^2= 5.1D+00
   Bfn.  Coefficient  Atom+Function         Bfn.  Coefficient  Atom+Function  
  ----- ------------  ---------------      ----- ------------  ---------------
   143      0.306448   9 C  pz              177     -0.279301  11 C  pz        
   162     -0.261481  10 H  s               173      0.252695  11 C  s         
   174     -0.239047  11 C  s               178     -0.233155  11 C  px        
   205     -0.229503  13 H  s               180     -0.201693  11 C  pz        
   206     -0.188957  13 H  s               197      0.165917  12 H  s         

 Vector   67  Occ=2.000000D+00  E=-5.101847D-01
              MO Center= -1.3D+00,  6.9D-01,  6.8D-02, r^2= 9.0D+00
   Bfn.  Coefficient  Atom+Function         Bfn.  Coefficient  Atom+Function  
  ----- ------------  ---------------      ----- ------------  ---------------
   486     -0.278186  29 C  pz              435      0.267039  26 H  s         
   539     -0.229395  32 C  s               483     -0.215939  29 C  pz        
   538      0.216075  32 C  s               593     -0.215277  34 C  dyz       
   407     -0.190920  24 C  dyz             469     -0.184395  28 H  s         
   466     -0.182621  27 C  dyz             347      0.180517  21 C  pz        

 Vector   68  Occ=2.000000D+00  E=-4.980511D-01
              MO Center= -1.7D+00,  6.4D-01, -9.6D-02, r^2= 5.6D+00
   Bfn.  Coefficient  Atom+Function         Bfn.  Coefficient  Atom+Function  
  ----- ------------  ---------------      ----- ------------  ---------------
   346      0.301153  21 C  py              389     -0.294374  24 C  py        
   414      0.207156  25 C  py              448     -0.194341  27 C  py        
   349      0.189502  21 C  py        

 Vector   69  Occ=2.000000D+00  E=-4.899519D-01
              MO Center= -1.6D+00,  6.7D-01,  6.6D-02, r^2= 6.6D+00
   Bfn.  Coefficient  Atom+Function         Bfn.  Coefficient  Atom+Function  
  ----- ------------  ---------------      ----- ------------  ---------------
   539      0.280839  32 C  s               367     -0.242745  22 H  s         
   562     -0.236227  33 H  s               347      0.224937  21 C  pz        
   366     -0.222199  22 H  s               390     -0.222657  24 C  pz        
   576      0.213333  34 C  pz              596      0.192883  35 H  s         
   393     -0.189123  24 C  pz              469      0.179020  28 H  s         

 Vector   70  Occ=2.000000D+00  E=-4.767185D-01
              MO Center= -1.1D+00,  1.7D+00,  2.4D-01, r^2= 6.9D+00
   Bfn.  Coefficient  Atom+Function         Bfn.  Coefficient  Atom+Function  
  ----- ------------  ---------------      ----- ------------  ---------------
   106      0.318218   7 N  s               506     -0.231871  30 O  px        
    56     -0.225530   5 C  s               509     -0.186143  30 O  px        
   352     -0.179509  21 C  py              574      0.178701  34 C  px        
   174      0.177215  11 C  s               388      0.177160  24 C  px        
   413      0.176899  25 C  px              226     -0.175495  15 C  s         

 Vector   71  Occ=2.000000D+00  E=-4.574946D-01
              MO Center=  1.2D+00, -8.6D-01,  5.0D-02, r^2= 6.8D+00
   Bfn.  Coefficient  Atom+Function         Bfn.  Coefficient  Atom+Function  
  ----- ------------  ---------------      ----- ------------  ---------------
   252      0.390069  16 O  px              255      0.315646  16 O  px        
    82     -0.248869   6 O  px              139     -0.204342   9 C  s         
    85     -0.195210   6 O  px               83      0.170337   6 O  py        
   107      0.160231   7 N  px              539     -0.160748  32 C  s         

 Vector   72  Occ=2.000000D+00  E=-4.411247D-01
              MO Center=  1.3D+00,  5.9D-02, -1.1D+00, r^2= 5.6D+00
   Bfn.  Coefficient  Atom+Function         Bfn.  Coefficient  Atom+Function  
  ----- ------------  ---------------      ----- ------------  ---------------
    83      0.434026   6 O  py               86      0.350828   6 O  py        
    84     -0.208814   6 O  pz               18      0.192923   2 C  py        
    15      0.186760   2 C  py               87     -0.184634   6 O  pz        
   105      0.161632   7 N  s                13      0.159283   2 C  s         
   634      0.150274  37 O  py        

 Vector   73  Occ=2.000000D+00  E=-4.342887D-01
              MO Center= -7.9D-01, -2.0D+00, -2.6D-01, r^2= 7.7D+00
   Bfn.  Coefficient  Atom+Function         Bfn.  Coefficient  Atom+Function  
  ----- ------------  ---------------      ----- ------------  ---------------
   634      0.389314  37 O  py              637      0.306415  37 O  py        
    83     -0.201803   6 O  py              279      0.199004  17 N  pz        
   226      0.190837  15 C  s               253     -0.191265  16 O  py        
   276     -0.172614  17 N  s               282      0.163350  17 N  pz        
   254     -0.161772  16 O  pz               86     -0.158423   6 O  py        

 Vector   74  Occ=2.000000D+00  E=-4.082469D-01
              MO Center=  1.5D+00, -9.9D-01, -3.7D-02, r^2= 5.8D+00
   Bfn.  Coefficient  Atom+Function         Bfn.  Coefficient  Atom+Function  
  ----- ------------  ---------------      ----- ------------  ---------------
   107      0.315859   7 N  px              110      0.298660   7 N  px        
   252     -0.285497  16 O  px              255     -0.229961  16 O  px        
   144     -0.208417   9 C  px               82     -0.200922   6 O  px        
   109     -0.177809   7 N  pz               85     -0.165560   6 O  px        
   141     -0.161063   9 C  px              276     -0.156988  17 N  s         

 Vector   75  Occ=2.000000D+00  E=-3.956009D-01
              MO Center= -1.6D+00, -3.3D+00, -2.8D-01, r^2= 3.8D+00
   Bfn.  Coefficient  Atom+Function         Bfn.  Coefficient  Atom+Function  
  ----- ------------  ---------------      ----- ------------  ---------------
   660     -0.365680  38 N  pz              635      0.341989  37 O  pz        
   663     -0.311540  38 N  pz              638      0.263910  37 O  pz        

 Vector   76  Occ=2.000000D+00  E=-3.862170D-01
              MO Center= -1.0D+00, -2.5D+00, -4.6D-02, r^2= 4.4D+00
   Bfn.  Coefficient  Atom+Function         Bfn.  Coefficient  Atom+Function  
  ----- ------------  ---------------      ----- ------------  ---------------
   634      0.328542  37 O  py              278     -0.269520  17 N  py        
   637      0.255937  37 O  py              281     -0.245331  17 N  py        
   279     -0.220433  17 N  pz              282     -0.198204  17 N  pz        
   606     -0.189687  36 C  s               660      0.164558  38 N  pz        
   253      0.159247  16 O  py              254      0.151018  16 O  pz        

 Vector   77  Occ=2.000000D+00  E=-3.460215D-01
              MO Center= -1.3D+00,  2.2D+00,  2.5D-01, r^2= 3.4D+00
   Bfn.  Coefficient  Atom+Function         Bfn.  Coefficient  Atom+Function  
  ----- ------------  ---------------      ----- ------------  ---------------
   447      0.272923  27 C  px              540     -0.265962  32 C  px        
   574     -0.258134  34 C  px              413      0.250822  25 C  px        
   450      0.219486  27 C  px              543     -0.202459  32 C  px        
   577     -0.184034  34 C  px              416      0.179408  25 C  px        
    56     -0.170873   5 C  s         

 Vector   78  Occ=2.000000D+00  E=-3.126947D-01
              MO Center= -1.3D+00,  2.2D+00,  2.5D-01, r^2= 4.1D+00
   Bfn.  Coefficient  Atom+Function         Bfn.  Coefficient  Atom+Function  
  ----- ------------  ---------------      ----- ------------  ---------------
   388      0.298481  24 C  px              481     -0.273572  29 C  px        
   391      0.249379  24 C  px              484     -0.213145  29 C  px        
   506      0.205631  30 O  px              509      0.175482  30 O  px        
   540     -0.173030  32 C  px              447     -0.169538  27 C  px        

 Vector   79  Occ=0.000000D+00  E= 2.256101D-02
              MO Center=  3.7D+00,  2.8D+00,  2.7D-02, r^2= 2.5D+01
   Bfn.  Coefficient  Atom+Function         Bfn.  Coefficient  Atom+Function  
  ----- ------------  ---------------      ----- ------------  ---------------
   226      2.883013  15 C  s               233      2.876700  15 C  px        
     3     -2.441065   1 H  s               148      2.069283   9 C  py        
   106     -1.880634   7 N  s                64      1.822662   5 C  py        
    12      1.793884   2 C  s               140      1.618683   9 C  s         
   198     -1.624093  12 H  s               310      1.476079  19 C  s         

 Vector   80  Occ=0.000000D+00  E= 3.076236D-02
              MO Center=  1.8D+00,  3.3D+00, -6.4D-01, r^2= 3.7D+01
   Bfn.  Coefficient  Atom+Function         Bfn.  Coefficient  Atom+Function  
  ----- ------------  ---------------      ----- ------------  ---------------
   233      2.977384  15 C  px              446      2.451169  27 C  s         
   470      2.343045  28 H  s               539     -2.311822  32 C  s         
   412      2.037759  25 C  s               573     -2.003228  34 C  s         
   198     -1.987759  12 H  s               489      1.834406  29 C  pz        
   455      1.814164  27 C  pz              395     -1.790663  24 C  py        

 Vector   81  Occ=0.000000D+00  E= 3.707950D-02
              MO Center=  9.9D-01,  1.5D+00,  2.5D+00, r^2= 3.2D+01
   Bfn.  Coefficient  Atom+Function         Bfn.  Coefficient  Atom+Function  
  ----- ------------  ---------------      ----- ------------  ---------------
   539      6.969785  32 C  s               563      4.093525  33 H  s         
   446     -3.697248  27 C  s               396     -3.465168  24 C  pz        
   233      3.238136  15 C  px              387     -3.136229  24 C  s         
   548     -2.939167  32 C  pz              489     -2.766691  29 C  pz        
   317      2.489673  19 C  px              226     -2.446873  15 C  s         

 Vector   82  Occ=0.000000D+00  E= 3.995329D-02
              MO Center=  1.5D+00, -2.3D+00, -3.6D-01, r^2= 3.9D+01
   Bfn.  Coefficient  Atom+Function         Bfn.  Coefficient  Atom+Function  
  ----- ------------  ---------------      ----- ------------  ---------------
    64      3.493699   5 C  py              480     -3.062279  29 C  s         
   148      2.711904   9 C  py               56     -2.486106   5 C  s         
   276     -2.349887  17 N  s                 3     -2.319374   1 H  s         
   352      2.183373  21 C  py              216      2.094455  14 H  s         
    13     -2.063948   2 C  s               420      1.994738  25 C  py        

 Vector   83  Occ=0.000000D+00  E= 4.782626D-02
              MO Center=  8.2D-01,  1.5D+00, -2.3D-01, r^2= 4.5D+01
   Bfn.  Coefficient  Atom+Function         Bfn.  Coefficient  Atom+Function  
  ----- ------------  ---------------      ----- ------------  ---------------
   539      4.229002  32 C  s               233      3.987380  15 C  px        
   480     -3.791145  29 C  s               317      3.563391  19 C  px        
   226     -3.511765  15 C  s               395     -3.227353  24 C  py        
   446     -3.034064  27 C  s               140     -2.877223   9 C  s         
   488      2.855928  29 C  py              412      2.562890  25 C  s         

 Vector   84  Occ=0.000000D+00  E= 4.948893D-02
              MO Center=  6.6D-01,  2.8D-01, -1.0D+00, r^2= 4.9D+01
   Bfn.  Coefficient  Atom+Function         Bfn.  Coefficient  Atom+Function  
  ----- ------------  ---------------      ----- ------------  ---------------
   470      4.019496  28 H  s               480     -3.994631  29 C  s         
   455      2.719257  27 C  pz              106      2.433793   7 N  s         
   657     -2.332709  38 N  s               149     -2.269285   9 C  pz        
   310      2.176887  19 C  s               436      2.117242  26 H  s         
   615     -2.127729  36 C  py              147     -2.030755   9 C  px        

 Vector   85  Occ=0.000000D+00  E= 5.308119D-02
              MO Center=  1.4D+00, -4.4D-01,  8.2D-01, r^2= 4.6D+01
   Bfn.  Coefficient  Atom+Function         Bfn.  Coefficient  Atom+Function  
  ----- ------------  ---------------      ----- ------------  ---------------
   164      2.632941  10 H  s               198      2.645464  12 H  s         
   207     -2.628694  13 H  s               563      2.589685  33 H  s         
   657     -2.385581  38 N  s               548     -2.278516  32 C  pz        
   470     -2.203592  28 H  s                64      1.946595   5 C  py        
   615     -1.887834  36 C  py               46     -1.755568   4 H  s         

 Vector   86  Occ=0.000000D+00  E= 5.831829D-02
              MO Center=  4.0D-01,  4.1D-01,  4.8D-02, r^2= 4.1D+01
   Bfn.  Coefficient  Atom+Function         Bfn.  Coefficient  Atom+Function  
  ----- ------------  ---------------      ----- ------------  ---------------
   597      3.853311  35 H  s                37      3.670751   3 H  s         
   436     -3.383918  26 H  s               130     -3.109527   8 H  s         
   421     -3.093808  25 C  pz              106     -2.846114   7 N  s         
    64     -2.796757   5 C  py              582     -2.733864  34 C  pz        
   164     -2.526422  10 H  s                56      2.200072   5 C  s         

 Vector   87  Occ=0.000000D+00  E= 5.958055D-02
              MO Center= -6.5D-01,  2.0D-01, -2.5D-02, r^2= 4.3D+01
   Bfn.  Coefficient  Atom+Function         Bfn.  Coefficient  Atom+Function  
  ----- ------------  ---------------      ----- ------------  ---------------
   539      5.457230  32 C  s               377     -3.801776  23 H  s         
   174     -3.542735  11 C  s               352     -3.380921  21 C  py        
   387     -3.320081  24 C  s               164      3.210052  10 H  s         
   563      3.214870  33 H  s                37      3.172135   3 H  s         
   581     -3.043324  34 C  py              198     -2.781655  12 H  s         

 Vector   88  Occ=0.000000D+00  E= 6.705833D-02
              MO Center=  6.0D-01, -5.2D-01, -4.2D-01, r^2= 5.0D+01
   Bfn.  Coefficient  Atom+Function         Bfn.  Coefficient  Atom+Function  
[...]

 Vector  197  Occ=0.000000D+00  E= 4.434794D-01
              MO Center=  1.4D+00,  8.3D-01, -9.9D-02, r^2= 2.0D+01
   Bfn.  Coefficient  Atom+Function         Bfn.  Coefficient  Atom+Function  
  ----- ------------  ---------------      ----- ------------  ---------------
   233     13.595650  15 C  px               64     13.304950   5 C  py        
    12     11.347434   2 C  s               412     10.030818  25 C  s         
   148      8.732497   9 C  py              276      8.340301  17 N  s         
   539     -7.499575  32 C  s                45     -6.903149   4 H  s         
   396      6.554850  24 C  pz                2     -6.479664   1 H  s         

 Vector  198  Occ=0.000000D+00  E= 4.481648D-01
              MO Center=  2.3D-01, -3.0D-03,  2.2D-03, r^2= 2.1D+01
   Bfn.  Coefficient  Atom+Function         Bfn.  Coefficient  Atom+Function  
  ----- ------------  ---------------      ----- ------------  ---------------
   480     18.074420  29 C  s               226    -14.085611  15 C  s         
   174     13.816547  11 C  s               318    -13.504888  19 C  py        
   233     -9.569458  15 C  px              412     -9.609443  25 C  s         
   607     -9.216518  36 C  s               420     -9.010630  25 C  py        
   539     -8.922981  32 C  s               387      8.717295  24 C  s         

 Vector  199  Occ=0.000000D+00  E= 4.522806D-01
              MO Center= -9.3D-02,  1.2D+00, -4.8D-01, r^2= 2.1D+01
   Bfn.  Coefficient  Atom+Function         Bfn.  Coefficient  Atom+Function  
  ----- ------------  ---------------      ----- ------------  ---------------
   480     25.154986  29 C  s               387     22.900887  24 C  s         
   539    -21.668101  32 C  s               607    -16.157714  36 C  s         
   310    -11.862837  19 C  s                12     11.076110   2 C  s         
   318    -10.116075  19 C  py              573     -9.719390  34 C  s         
    56      9.235815   5 C  s               412     -9.137159  25 C  s         

 Vector  200  Occ=0.000000D+00  E= 4.541002D-01
              MO Center= -7.4D-01, -3.8D-01,  2.1D-01, r^2= 2.2D+01
   Bfn.  Coefficient  Atom+Function         Bfn.  Coefficient  Atom+Function  
  ----- ------------  ---------------      ----- ------------  ---------------
   317     16.316988  19 C  px              352    -13.255947  21 C  py        
   480     12.920654  29 C  s               539     12.786719  32 C  s         
   276    -11.695945  17 N  s               226     -7.996887  15 C  s         
   582     -6.759419  34 C  pz              420     -5.751393  25 C  py        
   334     -5.394938  20 H  s               435     -5.311267  26 H  s         

 Vector  201  Occ=0.000000D+00  E= 4.610088D-01
              MO Center=  5.0D-01, -3.3D-01,  3.8D-02, r^2= 2.1D+01
   Bfn.  Coefficient  Atom+Function         Bfn.  Coefficient  Atom+Function  
  ----- ------------  ---------------      ----- ------------  ---------------
   480     14.889383  29 C  s               276      8.438138  17 N  s         
   412     -7.516239  25 C  s               657      7.188266  38 N  s         
   352     -6.854843  21 C  py              106     -6.710080   7 N  s         
   310     -6.409399  19 C  s               582     -6.226883  34 C  pz        
   300      5.828667  18 H  s               420     -5.778191  25 C  py        

 Vector  202  Occ=0.000000D+00  E= 4.648374D-01
              MO Center= -2.6D-01,  3.6D-02,  4.9D-02, r^2= 2.2D+01
   Bfn.  Coefficient  Atom+Function         Bfn.  Coefficient  Atom+Function  
  ----- ------------  ---------------      ----- ------------  ---------------
   480     18.372875  29 C  s               276     15.498147  17 N  s         
   174    -14.496665  11 C  s               300     11.013575  18 H  s         
   319     10.790138  19 C  pz              607    -10.335773  36 C  s         
   420     -9.999720  25 C  py              310     -9.097419  19 C  s         
   547     -8.426272  32 C  py              446      7.875309  27 C  s         

 Vector  203  Occ=0.000000D+00  E= 4.674589D-01
              MO Center=  1.1D+00, -5.6D-01,  6.3D-02, r^2= 2.0D+01
   Bfn.  Coefficient  Atom+Function         Bfn.  Coefficient  Atom+Function  
  ----- ------------  ---------------      ----- ------------  ---------------
   106     16.354759   7 N  s               174    -13.992466  11 C  s         
   148    -12.479615   9 C  py              283      7.525444  17 N  px        
   147      7.268148   9 C  px              420      6.781628  25 C  py        
   276      6.434135  17 N  s               226     -5.755733  15 C  s         
   300      5.749252  18 H  s                56      5.668391   5 C  s         

 Vector  204  Occ=0.000000D+00  E= 4.710278D-01
              MO Center= -4.2D-02,  4.5D-01,  1.2D-01, r^2= 2.2D+01
   Bfn.  Coefficient  Atom+Function         Bfn.  Coefficient  Atom+Function  
  ----- ------------  ---------------      ----- ------------  ---------------
   233     11.850889  15 C  px              174     11.332004  11 C  s         
   226    -11.244137  15 C  s               317     10.791243  19 C  px        
   412      8.301870  25 C  s               140     -7.372783   9 C  s         
   395     -7.106607  24 C  py              148      6.727653   9 C  py        
    56     -6.251754   5 C  s               352     -5.858792  21 C  py        

 Vector  205  Occ=0.000000D+00  E= 4.757850D-01
              MO Center=  1.1D-01,  1.9D-01,  1.5D-01, r^2= 2.1D+01
   Bfn.  Coefficient  Atom+Function         Bfn.  Coefficient  Atom+Function  
  ----- ------------  ---------------      ----- ------------  ---------------
   539    -17.511101  32 C  s               174     16.896809  11 C  s         
   233    -15.321917  15 C  px              480     12.643511  29 C  s         
   387     11.147850  24 C  s               276    -10.635593  17 N  s         
   607     -9.402600  36 C  s               310     -8.073060  19 C  s         
    56      8.001710   5 C  s               412     -7.017452  25 C  s         

 Vector  206  Occ=0.000000D+00  E= 4.784478D-01
              MO Center=  1.3D+00, -9.0D-01,  3.5D-01, r^2= 2.0D+01
   Bfn.  Coefficient  Atom+Function         Bfn.  Coefficient  Atom+Function  
  ----- ------------  ---------------      ----- ------------  ---------------
   233     21.402532  15 C  px              539     16.429278  32 C  s         
   174    -15.788990  11 C  s               412     15.775213  25 C  s         
   317     15.602128  19 C  px              352    -15.515845  21 C  py        
   147     12.070337   9 C  px              114      9.355194   7 N  py        
   581     -8.787610  34 C  py              547     -7.994040  32 C  py        

 Vector  207  Occ=0.000000D+00  E= 4.804493D-01
              MO Center=  3.3D-01,  3.5D-01,  4.9D-01, r^2= 2.1D+01
   Bfn.  Coefficient  Atom+Function         Bfn.  Coefficient  Atom+Function  
  ----- ------------  ---------------      ----- ------------  ---------------
    56     13.761296   5 C  s               226    -13.417730  15 C  s         
   352    -11.596245  21 C  py              412     11.563994  25 C  s         
   233     11.391196  15 C  px               13     10.996493   2 C  s         
   276     10.268397  17 N  s               317      8.706233  19 C  px        
   446      8.517684  27 C  s               394     -7.958529  24 C  px        

 Vector  208  Occ=0.000000D+00  E= 4.817605D-01
              MO Center= -8.9D-01, -1.4D-02,  1.5D-01, r^2= 2.2D+01
   Bfn.  Coefficient  Atom+Function         Bfn.  Coefficient  Atom+Function  
  ----- ------------  ---------------      ----- ------------  ---------------
   387     17.148919  24 C  s               276     15.625092  17 N  s         
   446    -13.096956  27 C  s               226    -12.542980  15 C  s         
   317    -12.131207  19 C  px              539    -10.998536  32 C  s         
   420     10.827082  25 C  py              344      9.508265  21 C  s         
   480     -9.127261  29 C  s               140     -8.567208   9 C  s         

 Vector  209  Occ=0.000000D+00  E= 4.898290D-01
              MO Center= -2.5D-02, -7.8D-02,  4.3D-02, r^2= 2.2D+01
   Bfn.  Coefficient  Atom+Function         Bfn.  Coefficient  Atom+Function  
  ----- ------------  ---------------      ----- ------------  ---------------
   480     11.669690  29 C  s               446      8.422669  27 C  s         
   283     -7.578650  17 N  px              539     -6.797927  32 C  s         
   547     -6.223459  32 C  py              657      6.020915  38 N  s         
   573     -5.964121  34 C  s               505     -5.821569  30 O  s         
   396      5.324059  24 C  pz              548      5.259150  32 C  pz        

 Vector  210  Occ=0.000000D+00  E= 4.915905D-01
              MO Center=  1.2D+00,  3.3D-01,  3.3D-01, r^2= 2.3D+01
   Bfn.  Coefficient  Atom+Function         Bfn.  Coefficient  Atom+Function  
  ----- ------------  ---------------      ----- ------------  ---------------
   174     23.992989  11 C  s               233    -15.224964  15 C  px        
   206     -9.751978  13 H  s               412     -9.282975  25 C  s         
   539     -9.196430  32 C  s               106      8.906300   7 N  s         
   173      8.178879  11 C  s               581      8.165632  34 C  py        
   147     -7.951923   9 C  px               12     -7.023334   2 C  s         

 Vector  211  Occ=0.000000D+00  E= 4.937220D-01
              MO Center=  7.1D-01,  3.0D-01,  1.9D-01, r^2= 2.3D+01
   Bfn.  Coefficient  Atom+Function         Bfn.  Coefficient  Atom+Function  
  ----- ------------  ---------------      ----- ------------  ---------------
   480     10.592712  29 C  s               395     -8.782966  24 C  py        
   505     -8.512323  30 O  s               446      8.128288  27 C  s         
   573     -7.214989  34 C  s                56     -5.240585   5 C  s         
   174      5.138065  11 C  s               376     -5.038408  23 H  s         
   367     -4.782118  22 H  s               539     -4.741214  32 C  s         

 Vector  212  Occ=0.000000D+00  E= 4.994048D-01
              MO Center=  3.0D-01,  5.5D-01,  3.2D-01, r^2= 2.1D+01
   Bfn.  Coefficient  Atom+Function         Bfn.  Coefficient  Atom+Function  
  ----- ------------  ---------------      ----- ------------  ---------------
   480     13.957609  29 C  s               226      9.810000  15 C  s         
   412     -9.686713  25 C  s               387     -7.243177  24 C  s         
   140      6.829087   9 C  s               283     -6.826897  17 N  px        
   276     -5.979497  17 N  s                12     -5.847963   2 C  s         
    64      5.624985   5 C  py              148      5.381757   9 C  py        

 Vector  213  Occ=0.000000D+00  E= 5.020474D-01
              MO Center=  2.3D-01, -1.2D-01, -2.3D-02, r^2= 1.9D+01
   Bfn.  Coefficient  Atom+Function         Bfn.  Coefficient  Atom+Function  
  ----- ------------  ---------------      ----- ------------  ---------------
    56     11.363383   5 C  s               106     -9.239419   7 N  s         
   148     -9.159696   9 C  py               13      7.747280   2 C  s         
   234      7.520474  15 C  py              226      7.419596  15 C  s         
   387     -5.978326  24 C  s                55      5.374906   5 C  s         
   173      5.386425  11 C  s               233     -5.397974  15 C  px        


 center of mass
 --------------
 x =  -0.06549729 y =  -0.02084240 z =  -0.00453657

 moments of inertia (a.u.)
 ------------------
        7304.655053022915          -0.000000000000          -0.000000000001
          -0.000000000000        4669.020273492470           0.000000000000
          -0.000000000001           0.000000000000       10090.554629459477

  Mulliken analysis of the total density
  --------------------------------------

    Atom       Charge   Shell Charges
 -----------   ------   -------------------------------------------------------
    1 H    1     0.86   0.77  0.13  0.02  0.03 -0.08
    2 C    6     6.38   2.01  0.66  0.41  0.06  2.07  0.97  0.00  0.06  0.13
    3 H    1     0.90   0.77  0.17 -0.00  0.03 -0.07
    4 H    1     0.77   0.76  0.06 -0.01  0.03 -0.07
    5 C    6     5.05   2.01  0.68  0.05  0.01  1.89  0.31 -0.11  0.24 -0.02
    6 O    8     8.83   2.01  0.82  1.01  0.18  2.80  1.87  0.13  0.02 -0.01
    7 N    7     7.58   2.01  0.72  0.80 -0.10  2.45  1.45  0.16  0.05  0.04
    8 H    1     0.97   0.77  0.22 -0.03  0.05 -0.04
    9 C    6     6.65   2.01  0.66  0.06 -0.05  1.99  1.73 -0.10  0.14  0.21
   10 H    1     1.00   0.78  0.18  0.00  0.03  0.01
   11 C    6     5.79   2.01  0.66  0.26  0.31  2.04  0.48 -0.04  0.07  0.01
   12 H    1     0.94   0.77  0.21  0.01  0.03 -0.09
   13 H    1     0.90   0.77  0.15  0.02  0.03 -0.08
   14 H    1     0.95   0.77  0.23  0.01  0.03 -0.08
   15 C    6     4.38   2.01  0.68 -0.08 -0.06  1.88  0.16 -0.02  0.23 -0.43
   16 O    8     8.86   2.01  0.82  1.04  0.18  2.80  1.87  0.15  0.01 -0.00
   17 N    7     7.47   2.01  0.72  0.87 -0.16  2.45  1.45  0.03  0.05  0.04
   18 H    1     0.90   0.74  0.27 -0.02  0.06 -0.15
   19 C    6     6.66   2.01  0.67  0.13  0.03  1.99  1.36  0.24  0.14  0.10
   20 H    1     1.00   0.79  0.18 -0.03  0.03  0.03
   21 C    6     5.40   2.01  0.66 -0.04 -0.03  2.04  0.67  0.07  0.09 -0.08
   22 H    1     1.18   0.78  0.44 -0.01  0.03 -0.05
   23 H    1     0.97   0.78  0.24 -0.01  0.03 -0.07
   24 C    6     6.47   2.01  0.66  0.21 -0.04  2.00  1.14  0.05  0.12  0.32
   25 C    6     5.22   2.01  0.67  0.11 -0.36  1.99  0.77  0.14  0.09 -0.20
   26 H    1     1.64   0.78  0.82  0.00  0.03  0.01
   27 C    6     5.48   2.01  0.66  0.33 -0.41  2.02  0.76  0.16  0.09 -0.13
   28 H    1     1.57   0.78  0.75 -0.01  0.03  0.01
   29 C    6     5.37   2.01  0.66  0.15 -0.15  1.94  0.36  0.30  0.17 -0.06
   30 O    8     8.75   2.01  0.80  0.98  0.18  2.84  1.85  0.11  0.01 -0.02
   31 H    1     0.88   0.73  0.05 -0.01  0.08  0.03
   32 C    6     5.21   2.01  0.66  0.19 -0.58  2.02  0.80  0.18  0.09 -0.16
   33 H    1     1.54   0.78  0.74 -0.01  0.03  0.01
   34 C    6     5.40   2.01  0.66  0.17 -0.25  1.99  0.79  0.16  0.09 -0.22
   35 H    1     1.62   0.78  0.77  0.03  0.03  0.01
   36 C    6     4.54   2.01  0.68  0.08  0.06  1.89 -0.14 -0.04  0.24 -0.23
   37 O    8     8.76   2.01  0.82  1.03  0.15  2.79  1.82  0.14  0.01 -0.01
   38 N    7     7.26   2.01  0.72  0.83 -0.12  2.47  1.25  0.09  0.04 -0.02
   39 H    1     0.92   0.73  0.19 -0.02  0.06 -0.05
   40 H    1     1.01   0.76  0.23 -0.00  0.05 -0.03

       Multipole analysis of the density wrt the origin
       ------------------------------------------------

     L   x y z        total         open         nuclear
     -   - - -        -----         ----         -------
     0   0 0 0      0.000000      0.000000    156.000000

     1   1 0 0      2.271689      0.000000     -0.000000
     1   0 1 0      1.643413      0.000000      0.000000
     1   0 0 1      0.192783      0.000000     -0.000000

     2   2 0 0    -94.649537      0.000000   2058.751502
     2   1 1 0     -5.220260      0.000000     -8.395031
     2   1 0 1     -1.601763      0.000000     10.792032
     2   0 2 0    -89.052653      0.000000   3423.293973
     2   0 1 1     -4.394229      0.000000    -21.653955
     2   0 0 2    -97.827442      0.000000    531.705533


 Task  times  cpu:    21860.7s     wall:    21972.2s


                                NWChem Input Module
                                -------------------


 Summary of allocated global arrays
-----------------------------------
  No active global arrays


MA_summarize_allocated_blocks: starting scan ...
MA_summarize_allocated_blocks: scan completed: 0 heap blocks, 0 stack blocks
MA usage statistics:

	allocation statistics:
					      heap	     stack
					      ----	     -----
	current number of blocks	         0	         0
	maximum number of blocks	        16	        14
	current total bytes		         0	         0
	maximum total bytes		    148488	  31456168
	maximum total K-bytes		       149	     31457
	maximum total M-bytes		         1	        32


                                     CITATION
                                     --------
                Please cite the following reference when publishing
                           results obtained with NWChem:

          E. Apra, E. J. Bylaska, W. A. de Jong, N. Govind, K. Kowalski,
       T. P. Straatsma, M. Valiev, H. J. J. van Dam, Y. Alexeev, J. Anchell,
       V. Anisimov, F. W. Aquino, R. Atta-Fynn, J. Autschbach, N. P. Bauman,
     J. C. Becca, D. E. Bernholdt, K. Bhaskaran-Nair, S. Bogatko, P. Borowski,
         J. Boschen, J. Brabec, A. Bruner, E. Cauet, Y. Chen, G. N. Chuev,
      C. J. Cramer, J. Daily, M. J. O. Deegan, T. H. Dunning Jr., M. Dupuis,
   K. G. Dyall, G. I. Fann, S. A. Fischer, A. Fonari, H. Fruchtl, L. Gagliardi,
      J. Garza, N. Gawande, S. Ghosh, K. Glaesemann, A. W. Gotz, J. Hammond,
       V. Helms, E. D. Hermes, K. Hirao, S. Hirata, M. Jacquelin, L. Jensen,
   B. G. Johnson, H. Jonsson, R. A. Kendall, M. Klemm, R. Kobayashi, V. Konkov,
      S. Krishnamoorthy, M. Krishnan, Z. Lin, R. D. Lins, R. J. Littlefield,
      A. J. Logsdail, K. Lopata, W. Ma, A. V. Marenich, J. Martin del Campo,
   D. Mejia-Rodriguez, J. E. Moore, J. M. Mullin, T. Nakajima, D. R. Nascimento,
    J. A. Nichols, P. J. Nichols, J. Nieplocha, A. Otero-de-la-Roza, B. Palmer,
    A. Panyala, T. Pirojsirikul, B. Peng, R. Peverati, J. Pittner, L. Pollack,
   R. M. Richard, P. Sadayappan, G. C. Schatz, W. A. Shelton, D. W. Silverstein,
   D. M. A. Smith, T. A. Soares, D. Song, M. Swart, H. L. Taylor, G. S. Thomas,
            V. Tipparaju, D. G. Truhlar, K. Tsemekhman, T. Van Voorhis,
      A. Vazquez-Mayagoitia, P. Verma, O. Villa, A. Vishnu, K. D. Vogiatzis,
        D. Wang, J. H. Weare, M. J. Williamson, T. L. Windus, K. Wolinski,
        A. T. Wong, Q. Wu, C. Yang, Q. Yu, M. Zacharias, Z. Zhang, Y. Zhao,
                                and R. J. Harrison
                        "NWChem: Past, present, and future
                         J. Chem. Phys. 152, 184102 (2020)
                               doi:10.1063/5.0004997

                                      AUTHORS
                                      -------
  E. Apra, E. J. Bylaska, N. Govind, K. Kowalski, M. Valiev, D. Mejia-Rodriguez,
       A. Kunitsa, N. P. Bauman, A. Panyala, W. A. de Jong, T. P. Straatsma,
   H. J. J. van Dam, D. Wang, T. L. Windus, J. Hammond, J. Autschbach, A. Woods,
    K. Bhaskaran-Nair, J. Brabec, K. Lopata, S. A. Fischer, S. Krishnamoorthy,
     M. Jacquelin, W. Ma, M. Klemm, O. Villa, Y. Chen, V. Anisimov, F. Aquino,
     S. Hirata, M. T. Hackler, E. Hermes, L. Jensen, J. E. Moore, J. C. Becca,
      V. Konjkov, T. Risthaus, M. Malagoli, A. Marenich, A. Otero-de-la-Roza,
        J. Mullin, P. Nichols, R. Peverati, J. Pittner, Y. Zhao, P.-D. Fan,
        A. Fonari, M. J. Williamson, R. J. Harrison, J. R. Rehr, M. Dupuis,
     D. Silverstein, D. M. A. Smith, J. Nieplocha, V. Tipparaju, M. Krishnan,
     B. E. Van Kuiken, A. Vazquez-Mayagoitia, M. Swart, Q. Wu, T. Van Voorhis,
     A. A. Auer, M. Nooijen, L. D. Crosby, E. Brown, G. Cisneros, G. I. Fann,
   H. Fruchtl, J. Garza, K. Hirao, R. A. Kendall, J. A. Nichols, K. Tsemekhman,
    K. Wolinski, J. Anchell, D. E. Bernholdt, P. Borowski, T. Clark, D. Clerc,
   H. Dachsel, M. J. O. Deegan, K. Dyall, D. Elwood, E. Glendening, M. Gutowski,
   A. C. Hess, J. Jaffe, B. G. Johnson, J. Ju, R. Kobayashi, R. Kutteh, Z. Lin,
   R. Littlefield, X. Long, B. Meng, T. Nakajima, S. Niu, L. Pollack, M. Rosing,
   K. Glaesemann, G. Sandrone, M. Stave, H. Taylor, G. Thomas, J. H. van Lenthe,
                               A. T. Wong, Z. Zhang.

 Total times  cpu:    21860.8s     wall:    21972.7s
