export TMOUT=5400
export TMPDIR=/tmp
export PTMPDIR=/tmp/ptmp
 argument  1 = ALA_PHE_3.nw
                                         
                                         


             Northwest Computational Chemistry Package (NWChem) 7.2.0
             --------------------------------------------------------


                    Environmental Molecular Sciences Laboratory
                       Pacific Northwest National Laboratory
                                Richland, WA 99352

                              Copyright (c) 1994-2022
                       Pacific Northwest National Laboratory
                            Battelle Memorial Institute

             NWChem is an open-source computational chemistry package
                        distributed under the terms of the
                      Educational Community License (ECL) 2.0
             A copy of the license is included with this distribution
                              in the LICENSE.TXT file

                                  ACKNOWLEDGMENT
                                  --------------

            This software and its documentation were developed at the
            EMSL at Pacific Northwest National Laboratory, a multiprogram
            national laboratory, operated for the U.S. Department of Energy
            by Battelle under Contract Number DE-AC05-76RL01830. Support
            for this work was provided by the Department of Energy Office
            of Biological and Environmental Research, Office of Basic
            Energy Sciences, and the Office of Advanced Scientific Computing.


           Job information
           ---------------

    hostname        = nova18-45
    program         = /opt/rit/el9/20230413/app/linux-rhel9-x86_64_v3/gcc-11.2.1/nwchem-7.2.0-oxtctbuhfuzyfaoziquq6bki22grib3g/bin/nwchem
    date            = Fri Jun 27 19:21:56 2025

    compiled        = Wed_May_17_23:46:39_2023
    source          = /tmp/root/spack-stage/spack-stage-nwchem-7.2.0-oxtctbuhfuzyfaoziquq6bki22grib3g/spack-src
    nwchem branch   = 7.2.0
    nwchem revision = d0d141fd
    ga revision     = 5.8.0
    use scalapack   = T
    input           = ALA_PHE_3.nw
    prefix          = ALA_PHE_3.
    data base       = ./ALA_PHE_3.db
    status          = startup
    nproc           =        8
    time left       =     -1s



           Memory information
           ------------------

    heap     =   26214396 doubles =    200.0 Mbytes
    stack    =   26214401 doubles =    200.0 Mbytes
    global   =   52428800 doubles =    400.0 Mbytes (distinct from heap & stack)
    total    =  104857597 doubles =    800.0 Mbytes
    verify   = yes
    hardfail = no 


           Directory information
           ---------------------

  0 permanent = .
  0 scratch   = .




                                NWChem Input Module
                                -------------------



 Scaling coordinates for geometry "geometry" by  1.889725989
 (inverse scale =  0.529177249)

 C1  symmetry detected

          ------
          auto-z
          ------
  no constraints, skipping    0.0000000000000000     
  no constraints, skipping    0.0000000000000000     


                             Geometry "geometry" -> ""
                             -------------------------

 Output coordinates in angstroms (scale by  1.889725989 to convert to a.u.)

  No.       Tag          Charge          X              Y              Z
 ---- ---------------- ---------- -------------- -------------- --------------
    1 H                    1.0000    -3.58895541    -2.52835527     2.05612078
    2 C                    6.0000    -2.65609726    -2.00863307     2.26712438
    3 H                    1.0000    -2.19876541    -2.43726136     3.15799495
    4 H                    1.0000    -2.84929043    -0.94936910     2.42978426
    5 C                    6.0000    -1.71327691    -2.17971834     1.10124934
    6 O                    8.0000    -0.63061195    -2.72700671     1.25894852
    7 N                    7.0000    -2.10984953    -1.67642597    -0.06853267
    8 H                    1.0000    -3.01099590    -1.23032516    -0.10909483
    9 C                    6.0000    -1.37972664    -1.84060499    -1.33399733
   10 H                    1.0000    -1.26244218    -2.90948944    -1.52103577
   11 C                    6.0000    -2.24960757    -1.25305850    -2.45235474
   12 H                    1.0000    -1.76469836    -1.41921186    -3.41604407
   13 H                    1.0000    -3.22517269    -1.74024016    -2.46421712
   14 H                    1.0000    -2.37761255    -0.17877551    -2.30379911
   15 C                    6.0000     0.04509812    -1.23602369    -1.36065900
   16 O                    8.0000     0.79946799    -1.49342880    -2.29385121
   17 N                    7.0000     0.42390090    -0.44973720    -0.34906865
   18 H                    1.0000    -0.24305453    -0.27933249     0.38437711
   19 C                    6.0000     1.77734170     0.09048313    -0.17465821
   20 H                    1.0000     2.13320526     0.45019349    -1.14127528
   21 C                    6.0000     1.71208088     1.28376283     0.79438750
   22 H                    1.0000     1.56424886     0.90156578     1.80591807
   23 H                    1.0000     2.67346013     1.79831109     0.77883034
   24 C                    6.0000     0.61880540     2.29327256     0.48321897
   25 C                    6.0000     0.65552931     3.02467759    -0.71862130
   26 H                    1.0000     1.47179184     2.88254316    -1.41316740
   27 C                    6.0000    -0.37003143     3.93714241    -1.02250963
   28 H                    1.0000    -0.33769801     4.49784377    -1.94642009
   29 C                    6.0000    -1.43427700     4.12394351    -0.12346586
   30 H                    1.0000    -2.22031638     4.83105197    -0.35619043
   31 C                    6.0000    -1.47358169     3.39762892     1.07902790
   32 H                    1.0000    -2.28777893     3.54979029     1.77401550
   33 C                    6.0000    -0.44930855     2.48333617     1.38288858
   34 H                    1.0000    -0.48071495     1.93230247     2.31166493
   35 C                    6.0000     2.80434996    -0.94950737     0.31882208
   36 O                    8.0000     3.99766283    -0.67550388     0.34159270
   37 N                    7.0000     2.38331192    -2.13697215     0.74286023
   38 H                    1.0000     3.07025514    -2.80387213     1.05144803
   39 H                    1.0000     1.39705061    -2.35811415     0.74804166

      Atomic Mass 
      ----------- 

      H                  1.007825
      C                 12.000000
      O                 15.994910
      N                 14.003070


 Effective nuclear repulsion energy (a.u.)    1610.2176591337

            Nuclear Dipole moment (a.u.) 
            ----------------------------
        X                 Y               Z
 ---------------- ---------------- ----------------
    -0.0000000000    -0.0000000000    -0.0000000000



                                Z-matrix (autoz)
                                -------- 

 Units are Angstrom for bonds and degrees for angles

      Type          Name      I     J     K     L     M      Value
      ----------- --------  ----- ----- ----- ----- ----- ----------
    1 Stretch                  1     2                       1.08851
    2 Stretch                  2     3                       1.08928
    3 Stretch                  2     4                       1.08895
    4 Stretch                  2     5                       1.50912
    5 Stretch                  5     6                       1.22334
    6 Stretch                  5     7                       1.33378
    7 Stretch                  7     8                       1.00634
    8 Stretch                  7     9                       1.47018
    9 Stretch                  9    10                       1.09145
   10 Stretch                  9    11                       1.53383
   11 Stretch                  9    15                       1.54802
   12 Stretch                 11    12                       1.09153
   13 Stretch                 11    13                       1.09051
   14 Stretch                 11    14                       1.09203
   15 Stretch                 15    16                       1.22726
   16 Stretch                 15    17                       1.33606
   17 Stretch                 17    18                       1.00589
   18 Stretch                 17    19                       1.46767
   19 Stretch                 19    20                       1.09104
   20 Stretch                 19    21                       1.53858
   21 Stretch                 19    35                       1.54268
   22 Stretch                 21    22                       1.09139
   23 Stretch                 21    23                       1.09053
   24 Stretch                 21    24                       1.52026
   25 Stretch                 24    25                       1.40738
   26 Stretch                 24    33                       1.40940
   27 Stretch                 25    26                       1.08115
   28 Stretch                 25    27                       1.40596
   29 Stretch                 27    28                       1.08122
   30 Stretch                 27    29                       1.40563
   31 Stretch                 29    30                       1.08260
   32 Stretch                 29    31                       1.40537
   33 Stretch                 31    32                       1.08124
   34 Stretch                 31    33                       1.40620
   35 Stretch                 33    34                       1.08039
   36 Stretch                 35    36                       1.22458
   37 Stretch                 35    37                       1.32934
   38 Stretch                 37    38                       1.00592
   39 Stretch                 37    39                       1.01076
   40 Bend                     1     2     3               109.29729
   41 Bend                     1     2     4               109.95952
   42 Bend                     1     2     5               109.36145
   43 Bend                     2     5     6               120.26739
   44 Bend                     2     5     7               116.68132
   45 Bend                     3     2     4               109.57802
   46 Bend                     3     2     5               108.96110
   47 Bend                     4     2     5               109.66452
   48 Bend                     5     7     8               117.96127
   49 Bend                     5     7     9               124.41061
   50 Bend                     6     5     7               123.02548
   51 Bend                     7     9    10               108.07342
   52 Bend                     7     9    11               107.64834
   53 Bend                     7     9    15               115.36038
   54 Bend                     8     7     9               117.35606
   55 Bend                     9    11    12               109.47991
   56 Bend                     9    11    13               110.13012
   57 Bend                     9    11    14               110.12823
   58 Bend                     9    15    16               119.79787
   59 Bend                     9    15    17               118.53946
   60 Bend                    10     9    11               108.12762
   61 Bend                    10     9    15               106.29729
   62 Bend                    11     9    15               111.09012
   63 Bend                    12    11    13               108.65161
   64 Bend                    12    11    14               108.77922
   65 Bend                    13    11    14               109.63959
   66 Bend                    15    17    18               117.63146
   67 Bend                    15    17    19               124.61438
   68 Bend                    16    15    17               121.66018
   69 Bend                    17    19    20               108.47271
   70 Bend                    17    19    21               108.73573
   71 Bend                    17    19    35               113.81536
   72 Bend                    18    17    19               117.54476
   73 Bend                    19    21    22               108.53549
   74 Bend                    19    21    23               108.63653
   75 Bend                    19    21    24               114.62000
   76 Bend                    19    35    36               120.25438
   77 Bend                    19    35    37               119.56298
   78 Bend                    20    19    21               108.42943
   79 Bend                    20    19    35               106.76975
   80 Bend                    21    19    35               110.46369
   81 Bend                    21    24    25               120.07406
   82 Bend                    21    24    33               120.25790
   83 Bend                    22    21    23               107.32956
   84 Bend                    22    21    24               108.95574
   85 Bend                    23    21    24               108.52607
   86 Bend                    24    25    26               119.99819
   87 Bend                    24    25    27               120.18692
   88 Bend                    24    33    31               120.11670
   89 Bend                    24    33    34               120.13282
   90 Bend                    25    24    33               119.65679
   91 Bend                    25    27    28               119.96301
   92 Bend                    25    27    29               120.01882
   93 Bend                    26    25    27               119.81438
   94 Bend                    27    29    30               119.93618
   95 Bend                    27    29    31               119.98434
   96 Bend                    28    27    29               120.01777
   97 Bend                    29    31    32               119.88824
   98 Bend                    29    31    33               120.03614
   99 Bend                    30    29    31               120.07878
  100 Bend                    31    33    34               119.74911
  101 Bend                    32    31    33               120.07321
  102 Bend                    35    37    38               118.27994
  103 Bend                    35    37    39               120.40574
  104 Bend                    36    35    37               120.17090
  105 Bend                    38    37    39               121.31373
  106 Torsion                  1     2     5     6        -119.62076
  107 Torsion                  1     2     5     7          62.17196
  108 Torsion                  2     5     7     8          -0.98052
  109 Torsion                  2     5     7     9        -174.81701
  110 Torsion                  3     2     5     6          -0.20746
  111 Torsion                  3     2     5     7        -178.41474
  112 Torsion                  4     2     5     6         119.72869
  113 Torsion                  4     2     5     7         -58.47859
  114 Torsion                  5     7     9    10          57.05614
  115 Torsion                  5     7     9    11         173.62482
  116 Torsion                  5     7     9    15         -61.71721
  117 Torsion                  6     5     7     8        -179.13379
  118 Torsion                  6     5     7     9           7.02972
  119 Torsion                  7     9    11    12        -176.24618
  120 Torsion                  7     9    11    13         -56.84267
  121 Torsion                  7     9    11    14          64.19462
  122 Torsion                  7     9    15    16         169.22858
  123 Torsion                  7     9    15    17         -10.20798
  124 Torsion                  8     7     9    10        -116.81451
  125 Torsion                  8     7     9    11          -0.24582
  126 Torsion                  8     7     9    15         124.41215
  127 Torsion                  9    15    17    18          -0.54825
  128 Torsion                  9    15    17    19         174.05050
  129 Torsion                 10     9    11    12         -59.71295
  130 Torsion                 10     9    11    13          59.69057
  131 Torsion                 10     9    11    14        -179.27215
  132 Torsion                 10     9    15    16          49.47487
  133 Torsion                 10     9    15    17        -129.96169
  134 Torsion                 11     9    15    16         -67.92452
  135 Torsion                 11     9    15    17         112.63892
  136 Torsion                 12    11     9    15          56.56578
  137 Torsion                 13    11     9    15         175.96929
  138 Torsion                 14    11     9    15         -62.99342
  139 Torsion                 15    17    19    20          43.70631
  140 Torsion                 15    17    19    21         161.43387
  141 Torsion                 15    17    19    35         -74.97654
  142 Torsion                 16    15    17    18        -179.97382
  143 Torsion                 16    15    17    19          -5.37506
  144 Torsion                 17    19    21    22          74.11363
  145 Torsion                 17    19    21    23        -169.48718
  146 Torsion                 17    19    21    24         -47.92681
  147 Torsion                 17    19    35    36         170.65019
  148 Torsion                 17    19    35    37         -10.59408
  149 Torsion                 18    17    19    20        -141.69066
  150 Torsion                 18    17    19    21         -23.96310
  151 Torsion                 18    17    19    35          99.62649
  152 Torsion                 19    21    24    25         -64.01693
  153 Torsion                 19    21    24    33         114.75881
  154 Torsion                 19    35    37    38         179.37852
  155 Torsion                 19    35    37    39          -0.34406
  156 Torsion                 20    19    21    22        -168.13136
  157 Torsion                 20    19    21    23         -51.73217
  158 Torsion                 20    19    21    24          69.82820
  159 Torsion                 20    19    35    36          50.99817
  160 Torsion                 20    19    35    37        -130.24611
  161 Torsion                 21    19    35    36         -66.70347
  162 Torsion                 21    19    35    37         112.05225
  163 Torsion                 21    24    25    26          -1.15897
  164 Torsion                 21    24    25    27         178.57944
  165 Torsion                 21    24    33    31        -178.67161
  166 Torsion                 21    24    33    34           1.75515
  167 Torsion                 22    21    19    35         -51.45464
  168 Torsion                 22    21    24    25         174.17153
  169 Torsion                 22    21    24    33          -7.05273
  170 Torsion                 23    21    19    35          64.94455
  171 Torsion                 23    21    24    25          57.60382
  172 Torsion                 23    21    24    33        -123.62043
  173 Torsion                 24    21    19    35        -173.49508
  174 Torsion                 24    25    27    28         179.94128
  175 Torsion                 24    25    27    29           0.17289
  176 Torsion                 24    33    31    29           0.01605
  177 Torsion                 24    33    31    32        -179.41926
  178 Torsion                 25    24    33    31           0.10925
  179 Torsion                 25    24    33    34        -179.46399
  180 Torsion                 25    27    29    30         179.65016
  181 Torsion                 25    27    29    31          -0.04665
  182 Torsion                 26    25    24    33        -179.94210
  183 Torsion                 26    25    27    28          -0.31983
  184 Torsion                 26    25    27    29         179.91178
  185 Torsion                 27    25    24    33          -0.20369
  186 Torsion                 27    29    31    32         179.38876
  187 Torsion                 27    29    31    33          -0.04760
  188 Torsion                 28    27    29    30          -0.11810
  189 Torsion                 28    27    29    31        -179.81491
  190 Torsion                 29    31    33    34         179.59093
  191 Torsion                 30    29    31    32          -0.30762
  192 Torsion                 30    29    31    33        -179.74397
  193 Torsion                 32    31    33    34           0.15563
  194 Torsion                 36    35    37    38          -1.86470
  195 Torsion                 36    35    37    39         178.41272


            XYZ format geometry
            -------------------
    39
 geometry
 H                    -3.58895541    -2.52835527     2.05612078
 C                    -2.65609726    -2.00863307     2.26712438
 H                    -2.19876541    -2.43726136     3.15799495
 H                    -2.84929043    -0.94936910     2.42978426
 C                    -1.71327691    -2.17971834     1.10124934
 O                    -0.63061195    -2.72700671     1.25894852
 N                    -2.10984953    -1.67642597    -0.06853267
 H                    -3.01099590    -1.23032516    -0.10909483
 C                    -1.37972664    -1.84060499    -1.33399733
 H                    -1.26244218    -2.90948944    -1.52103577
 C                    -2.24960757    -1.25305850    -2.45235474
 H                    -1.76469836    -1.41921186    -3.41604407
 H                    -3.22517269    -1.74024016    -2.46421712
 H                    -2.37761255    -0.17877551    -2.30379911
 C                     0.04509812    -1.23602369    -1.36065900
 O                     0.79946799    -1.49342880    -2.29385121
 N                     0.42390090    -0.44973720    -0.34906865
 H                    -0.24305453    -0.27933249     0.38437711
 C                     1.77734170     0.09048313    -0.17465821
 H                     2.13320526     0.45019349    -1.14127528
 C                     1.71208088     1.28376283     0.79438750
 H                     1.56424886     0.90156578     1.80591807
 H                     2.67346013     1.79831109     0.77883034
 C                     0.61880540     2.29327256     0.48321897
 C                     0.65552931     3.02467759    -0.71862130
 H                     1.47179184     2.88254316    -1.41316740
 C                    -0.37003143     3.93714241    -1.02250963
 H                    -0.33769801     4.49784377    -1.94642009
 C                    -1.43427700     4.12394351    -0.12346586
 H                    -2.22031638     4.83105197    -0.35619043
 C                    -1.47358169     3.39762892     1.07902790
 H                    -2.28777893     3.54979029     1.77401550
 C                    -0.44930855     2.48333617     1.38288858
 H                    -0.48071495     1.93230247     2.31166493
 C                     2.80434996    -0.94950737     0.31882208
 O                     3.99766283    -0.67550388     0.34159270
 N                     2.38331192    -2.13697215     0.74286023
 H                     3.07025514    -2.80387213     1.05144803
 H                     1.39705061    -2.35811415     0.74804166

 ==============================================================================
                                internuclear distances
 ------------------------------------------------------------------------------
       center one      |      center two      | atomic units |  angstroms
 ------------------------------------------------------------------------------
    2 C                |   1 H                |     2.05699  |     1.08851
    3 H                |   2 C                |     2.05844  |     1.08928
    4 H                |   2 C                |     2.05783  |     1.08895
    5 C                |   2 C                |     2.85182  |     1.50912
    6 O                |   5 C                |     2.31177  |     1.22334
    7 N                |   5 C                |     2.52047  |     1.33378
    8 H                |   7 N                |     1.90170  |     1.00634
    9 C                |   7 N                |     2.77824  |     1.47018
   10 H                |   9 C                |     2.06253  |     1.09145
   11 C                |   9 C                |     2.89851  |     1.53383
   12 H                |  11 C                |     2.06270  |     1.09153
   13 H                |  11 C                |     2.06077  |     1.09051
   14 H                |  11 C                |     2.06364  |     1.09203
   15 C                |   9 C                |     2.92533  |     1.54802
   16 O                |  15 C                |     2.31919  |     1.22726
   17 N                |  15 C                |     2.52478  |     1.33606
   18 H                |  17 N                |     1.90085  |     1.00589
   19 C                |  17 N                |     2.77350  |     1.46767
   20 H                |  19 C                |     2.06178  |     1.09104
   21 C                |  19 C                |     2.90749  |     1.53858
   22 H                |  21 C                |     2.06242  |     1.09139
   23 H                |  21 C                |     2.06080  |     1.09053
   24 C                |  21 C                |     2.87287  |     1.52026
   25 C                |  24 C                |     2.65956  |     1.40738
   26 H                |  25 C                |     2.04307  |     1.08115
   27 C                |  25 C                |     2.65687  |     1.40596
   28 H                |  27 C                |     2.04321  |     1.08122
   29 C                |  27 C                |     2.65625  |     1.40563
   30 H                |  29 C                |     2.04582  |     1.08260
   31 C                |  29 C                |     2.65577  |     1.40537
   32 H                |  31 C                |     2.04325  |     1.08124
   33 C                |  24 C                |     2.66337  |     1.40940
   33 C                |  31 C                |     2.65733  |     1.40620
   34 H                |  33 C                |     2.04165  |     1.08039
   35 C                |  19 C                |     2.91523  |     1.54268
   36 O                |  35 C                |     2.31412  |     1.22458
   37 N                |  35 C                |     2.51209  |     1.32934
   38 H                |  37 N                |     1.90091  |     1.00592
   39 H                |  37 N                |     1.91007  |     1.01076
 ------------------------------------------------------------------------------
                         number of included internuclear distances:         39
 ==============================================================================



 ==============================================================================
                                 internuclear angles
 ------------------------------------------------------------------------------
        center 1       |       center 2       |       center 3       |  degrees
 ------------------------------------------------------------------------------
    1 H                |   2 C                |   3 H                |   109.30
    1 H                |   2 C                |   4 H                |   109.96
    1 H                |   2 C                |   5 C                |   109.36
    3 H                |   2 C                |   4 H                |   109.58
    3 H                |   2 C                |   5 C                |   108.96
    4 H                |   2 C                |   5 C                |   109.66
    2 C                |   5 C                |   6 O                |   120.27
    2 C                |   5 C                |   7 N                |   116.68
    6 O                |   5 C                |   7 N                |   123.03
    5 C                |   7 N                |   8 H                |   117.96
    5 C                |   7 N                |   9 C                |   124.41
    8 H                |   7 N                |   9 C                |   117.36
    7 N                |   9 C                |  10 H                |   108.07
    7 N                |   9 C                |  11 C                |   107.65
    7 N                |   9 C                |  15 C                |   115.36
   10 H                |   9 C                |  11 C                |   108.13
   10 H                |   9 C                |  15 C                |   106.30
   11 C                |   9 C                |  15 C                |   111.09
    9 C                |  11 C                |  12 H                |   109.48
    9 C                |  11 C                |  13 H                |   110.13
    9 C                |  11 C                |  14 H                |   110.13
   12 H                |  11 C                |  13 H                |   108.65
   12 H                |  11 C                |  14 H                |   108.78
   13 H                |  11 C                |  14 H                |   109.64
    9 C                |  15 C                |  16 O                |   119.80
    9 C                |  15 C                |  17 N                |   118.54
   16 O                |  15 C                |  17 N                |   121.66
   15 C                |  17 N                |  18 H                |   117.63
   15 C                |  17 N                |  19 C                |   124.61
   18 H                |  17 N                |  19 C                |   117.54
   17 N                |  19 C                |  20 H                |   108.47
   17 N                |  19 C                |  21 C                |   108.74
   17 N                |  19 C                |  35 C                |   113.82
   20 H                |  19 C                |  21 C                |   108.43
   20 H                |  19 C                |  35 C                |   106.77
   21 C                |  19 C                |  35 C                |   110.46
   19 C                |  21 C                |  22 H                |   108.54
   19 C                |  21 C                |  23 H                |   108.64
   19 C                |  21 C                |  24 C                |   114.62
   22 H                |  21 C                |  23 H                |   107.33
   22 H                |  21 C                |  24 C                |   108.96
   23 H                |  21 C                |  24 C                |   108.53
   21 C                |  24 C                |  25 C                |   120.07
   21 C                |  24 C                |  33 C                |   120.26
   25 C                |  24 C                |  33 C                |   119.66
   24 C                |  25 C                |  26 H                |   120.00
   24 C                |  25 C                |  27 C                |   120.19
   26 H                |  25 C                |  27 C                |   119.81
   25 C                |  27 C                |  28 H                |   119.96
   25 C                |  27 C                |  29 C                |   120.02
   28 H                |  27 C                |  29 C                |   120.02
   27 C                |  29 C                |  30 H                |   119.94
   27 C                |  29 C                |  31 C                |   119.98
   30 H                |  29 C                |  31 C                |   120.08
   29 C                |  31 C                |  32 H                |   119.89
   29 C                |  31 C                |  33 C                |   120.04
   32 H                |  31 C                |  33 C                |   120.07
   24 C                |  33 C                |  31 C                |   120.12
   24 C                |  33 C                |  34 H                |   120.13
   31 C                |  33 C                |  34 H                |   119.75
   19 C                |  35 C                |  36 O                |   120.25
   19 C                |  35 C                |  37 N                |   119.56
   36 O                |  35 C                |  37 N                |   120.17
   35 C                |  37 N                |  38 H                |   118.28
   35 C                |  37 N                |  39 H                |   120.41
   38 H                |  37 N                |  39 H                |   121.31
 ------------------------------------------------------------------------------
                            number of included internuclear angles:         66
 ==============================================================================



  library name resolved from: environment
  library file name is: </opt/rit/el9/20230413/app/linux-rhel9-x86_64_v3/gcc-11.2.1/nwchem-7.2.0-oxtctbuhfuzyfaoziquq6bki22grib3g/share/nwchem/libraries/>
  


 Summary of "ao basis" -> "" (cartesian)
 ------------------------------------------------------------------------------
       Tag                 Description            Shells   Functions and Types
 ---------------- ------------------------------  ------  ---------------------
 *                        aug-cc-pvdz                 on all atoms 


                      Basis "ao basis" -> "ao basis" (cartesian)
                      -----
  H (Hydrogen)
  ------------
            Exponent  Coefficients 
       -------------- ---------------------------------------------------------
  1 S  1.30100000E+01  0.019685
  1 S  1.96200000E+00  0.137977
  1 S  4.44600000E-01  0.478148

  2 S  1.22000000E-01  1.000000

  3 S  2.97400000E-02  1.000000

  4 P  7.27000000E-01  1.000000

  5 P  1.41000000E-01  1.000000

  C (Carbon)
  ----------
            Exponent  Coefficients 
       -------------- ---------------------------------------------------------
  1 S  6.66500000E+03  0.000692
  1 S  1.00000000E+03  0.005329
  1 S  2.28000000E+02  0.027077
  1 S  6.47100000E+01  0.101718
  1 S  2.10600000E+01  0.274740
  1 S  7.49500000E+00  0.448564
  1 S  2.79700000E+00  0.285074
  1 S  5.21500000E-01  0.015204

  2 S  6.66500000E+03 -0.000146
  2 S  1.00000000E+03 -0.001154
  2 S  2.28000000E+02 -0.005725
  2 S  6.47100000E+01 -0.023312
  2 S  2.10600000E+01 -0.063955
  2 S  7.49500000E+00 -0.149981
  2 S  2.79700000E+00 -0.127262
  2 S  5.21500000E-01  0.544529

  3 S  1.59600000E-01  1.000000

  4 S  4.69000000E-02  1.000000

  5 P  9.43900000E+00  0.038109
  5 P  2.00200000E+00  0.209480
  5 P  5.45600000E-01  0.508557

  6 P  1.51700000E-01  1.000000

  7 P  4.04100000E-02  1.000000

  8 D  5.50000000E-01  1.000000

  9 D  1.51000000E-01  1.000000

  O (Oxygen)
  ----------
            Exponent  Coefficients 
       -------------- ---------------------------------------------------------
  1 S  1.17200000E+04  0.000710
  1 S  1.75900000E+03  0.005470
  1 S  4.00800000E+02  0.027837
  1 S  1.13700000E+02  0.104800
  1 S  3.70300000E+01  0.283062
  1 S  1.32700000E+01  0.448719
  1 S  5.02500000E+00  0.270952
  1 S  1.01300000E+00  0.015458

  2 S  1.17200000E+04 -0.000160
  2 S  1.75900000E+03 -0.001263
  2 S  4.00800000E+02 -0.006267
  2 S  1.13700000E+02 -0.025716
  2 S  3.70300000E+01 -0.070924
  2 S  1.32700000E+01 -0.165411
  2 S  5.02500000E+00 -0.116955
  2 S  1.01300000E+00  0.557368

  3 S  3.02300000E-01  1.000000

  4 S  7.89600000E-02  1.000000

  5 P  1.77000000E+01  0.043018
  5 P  3.85400000E+00  0.228913
  5 P  1.04600000E+00  0.508728

  6 P  2.75300000E-01  1.000000

  7 P  6.85600000E-02  1.000000

  8 D  1.18500000E+00  1.000000

  9 D  3.32000000E-01  1.000000

  N (Nitrogen)
  ------------
            Exponent  Coefficients 
       -------------- ---------------------------------------------------------
  1 S  9.04600000E+03  0.000700
  1 S  1.35700000E+03  0.005389
  1 S  3.09300000E+02  0.027406
  1 S  8.77300000E+01  0.103207
  1 S  2.85600000E+01  0.278723
  1 S  1.02100000E+01  0.448540
  1 S  3.83800000E+00  0.278238
  1 S  7.46600000E-01  0.015440

  2 S  9.04600000E+03 -0.000153
  2 S  1.35700000E+03 -0.001208
  2 S  3.09300000E+02 -0.005992
  2 S  8.77300000E+01 -0.024544
  2 S  2.85600000E+01 -0.067459
  2 S  1.02100000E+01 -0.158078
  2 S  3.83800000E+00 -0.121831
  2 S  7.46600000E-01  0.549003

  3 S  2.24800000E-01  1.000000

  4 S  6.12400000E-02  1.000000

  5 P  1.35500000E+01  0.039919
  5 P  2.91700000E+00  0.217169
  5 P  7.97300000E-01  0.510319

  6 P  2.18500000E-01  1.000000

  7 P  5.61100000E-02  1.000000

  8 D  8.17000000E-01  1.000000

  9 D  2.30000000E-01  1.000000



 Summary of "ao basis" -> "ao basis" (cartesian)
 ------------------------------------------------------------------------------
       Tag                 Description            Shells   Functions and Types
 ---------------- ------------------------------  ------  ---------------------
 H                        aug-cc-pvdz                5        9   3s2p
 C                        aug-cc-pvdz                9       25   4s3p2d
 O                        aug-cc-pvdz                9       25   4s3p2d
 N                        aug-cc-pvdz                9       25   4s3p2d


                                 NWChem SCF Module
                                 -----------------



  ao basis        = "ao basis"
  functions       =   671
  atoms           =    39
  closed shells   =    74
  open shells     =     0
  charge          =   0.00
  wavefunction    = RHF 
  input vectors   = atomic
  output vectors  = ./ALA_PHE_3.movecs
  use symmetry    = F
  symmetry adapt  = F


 Summary of "ao basis" -> "ao basis" (cartesian)
 ------------------------------------------------------------------------------
       Tag                 Description            Shells   Functions and Types
 ---------------- ------------------------------  ------  ---------------------
 H                        aug-cc-pvdz                5        9   3s2p
 C                        aug-cc-pvdz                9       25   4s3p2d
 O                        aug-cc-pvdz                9       25   4s3p2d
 N                        aug-cc-pvdz                9       25   4s3p2d



 Forming initial guess at       1.3s


 !! The overlap matrix has  12 vectors deemed linearly dependent with
    eigenvalues:
 1.33D-06 1.74D-06 2.00D-06 3.10D-06 3.84D-06 4.11D-06 4.75D-06 5.36D-06
 6.97D-06 7.25D-06 7.32D-06 8.80D-06


      Superposition of Atomic Density Guess
      -------------------------------------

 Sum of atomic energies:        -924.03424378

      Non-variational initial energy
      ------------------------------

 Total energy =    -937.477724
 1-e energy   =   -4453.110651
 2-e energy   =    1905.415268
 HOMO         =      -0.292158
 LUMO         =      -0.025919


 Starting SCF solution at     353.3s



 ----------------------------------------------
         Quadratically convergent ROHF

 Convergence threshold     :          1.000E-04
 Maximum no. of iterations :           30
 Final Fock-matrix accuracy:          1.000E-10
 ----------------------------------------------


              iter       energy          gnorm     gmax       time
             ----- ------------------- --------- --------- --------
                 1     -928.9267252897  2.51D+00  1.98D-01    720.4
                 2     -929.2749898241  9.15D-01  4.66D-02   1425.9
                 3     -929.3476548276  6.67D-02  3.90D-03   2422.6
                 4     -929.3482952832  2.10D-03  9.00D-05   4102.7
                 5     -929.3482958660  8.69D-06  2.21D-06   6509.4


       Final RHF  results 
       ------------------ 

         Total SCF energy =   -929.348295865984
      One-electron energy =  -4467.142344964690
      Two-electron energy =   1927.576389965001
 Nuclear repulsion energy =   1610.217659133705

        Time for solution =   6164.9s


             Final eigenvalues
             -----------------

              1      
    1  -20.5532
    2  -20.5285
    3  -20.5060
    4  -15.6258
    5  -15.5999
    6  -15.5713
    7  -11.3819
    8  -11.3633
    9  -11.3424
   10  -11.3127
   11  -11.2949
   12  -11.2657
   13  -11.2652
   14  -11.2598
   15  -11.2582
   16  -11.2562
   17  -11.2560
   18  -11.2546
   19  -11.2530
   20  -11.2528
   21   -1.4173
   22   -1.3886
   23   -1.3679
   24   -1.2748
   25   -1.2479
   26   -1.1955
   27   -1.1633
   28   -1.0857
   29   -1.0695
   30   -1.0260
   31   -1.0153
   32   -1.0068
   33   -0.9173
   34   -0.8921
   35   -0.8419
   36   -0.8352
   37   -0.8106
   38   -0.8062
   39   -0.7824
   40   -0.7380
   41   -0.7268
   42   -0.7084
   43   -0.7030
   44   -0.6946
   45   -0.6657
   46   -0.6552
   47   -0.6440
   48   -0.6390
   49   -0.6291
   50   -0.6093
   51   -0.6022
   52   -0.5985
   53   -0.5963
   54   -0.5917
   55   -0.5896
   56   -0.5771
   57   -0.5610
   58   -0.5581
   59   -0.5540
   60   -0.5491
   61   -0.5391
   62   -0.5231
   63   -0.5096
   64   -0.4993
   65   -0.4953
   66   -0.4895
   67   -0.4530
   68   -0.4513
   69   -0.4311
   70   -0.4090
   71   -0.3906
   72   -0.3829
   73   -0.3474
   74   -0.3373
   75    0.0163
   76    0.0303
   77    0.0315
   78    0.0396
   79    0.0453
   80    0.0491
   81    0.0530
   82    0.0551
   83    0.0581
   84    0.0655

                       ROHF Final Molecular Orbital Analysis
                       -------------------------------------

 Vector   21  Occ=2.000000D+00  E=-1.417290D+00
              MO Center= -1.1D+00, -2.4D+00,  9.8D-01, r^2= 1.2D+00
   Bfn.  Coefficient  Atom+Function         Bfn.  Coefficient  Atom+Function  
  ----- ------------  ---------------      ----- ------------  ---------------
    79      0.344159   6 O  s                80      0.344736   6 O  s         
    54      0.242929   5 C  s                12      0.191077   2 C  s         
   225      0.150323  15 C  s         

 Vector   22  Occ=2.000000D+00  E=-1.388618D+00
              MO Center=  5.7D-01, -1.3D+00, -1.6D+00, r^2= 1.7D+00
   Bfn.  Coefficient  Atom+Function         Bfn.  Coefficient  Atom+Function  
  ----- ------------  ---------------      ----- ------------  ---------------
   250      0.358208  16 O  s               249      0.336073  16 O  s         
   224      0.241028  15 C  s         

 Vector   23  Occ=2.000000D+00  E=-1.367856D+00
              MO Center=  3.4D+00, -9.1D-01,  2.9D-01, r^2= 1.3D+00
   Bfn.  Coefficient  Atom+Function         Bfn.  Coefficient  Atom+Function  
  ----- ------------  ---------------      ----- ------------  ---------------
   606      0.373731  36 O  s               605      0.347507  36 O  s         
   580      0.243243  35 C  s         

 Vector   24  Occ=2.000000D+00  E=-1.274764D+00
              MO Center= -1.6D+00, -1.8D+00, -1.5D-02, r^2= 2.2D+00
   Bfn.  Coefficient  Atom+Function         Bfn.  Coefficient  Atom+Function  
  ----- ------------  ---------------      ----- ------------  ---------------
   105      0.395112   7 N  s               104      0.332673   7 N  s         
    80     -0.218002   6 O  s               139     -0.191220   9 C  s         
    79     -0.179139   6 O  s               128      0.153676   8 H  s         
   225      0.150108  15 C  s         

 Vector   25  Occ=2.000000D+00  E=-1.247858D+00
              MO Center=  5.5D-01, -6.7D-01, -4.6D-01, r^2= 2.7D+00
   Bfn.  Coefficient  Atom+Function         Bfn.  Coefficient  Atom+Function  
  ----- ------------  ---------------      ----- ------------  ---------------
   275      0.365997  17 N  s               274      0.322520  17 N  s         
   250     -0.198633  16 O  s               309     -0.198391  19 C  s         
   249     -0.162509  16 O  s               229      0.154050  15 C  pz        

 Vector   26  Occ=2.000000D+00  E=-1.195516D+00
              MO Center=  2.5D+00, -1.7D+00,  5.8D-01, r^2= 1.7D+00
   Bfn.  Coefficient  Atom+Function         Bfn.  Coefficient  Atom+Function  
  ----- ------------  ---------------      ----- ------------  ---------------
   631      0.386783  37 N  s               630      0.367230  37 N  s         
   309     -0.248717  19 C  s               606     -0.200050  36 O  s         
   605     -0.169413  36 O  s               663      0.161762  39 H  s         
   654      0.158694  38 H  s               584     -0.151563  35 C  py        

 Vector   27  Occ=2.000000D+00  E=-1.163293D+00
              MO Center= -2.1D-01,  2.9D+00,  2.3D-01, r^2= 2.8D+00
   Bfn.  Coefficient  Atom+Function         Bfn.  Coefficient  Atom+Function  
  ----- ------------  ---------------      ----- ------------  ---------------
   385      0.199922  24 C  s               546      0.175626  33 C  s         
   410      0.172636  25 C  s               512      0.161471  31 C  s         
   444      0.158320  27 C  s               478      0.155593  29 C  s         

 Vector   28  Occ=2.000000D+00  E=-1.085747D+00
              MO Center= -6.2D-01, -2.9D-01, -2.8D-01, r^2= 8.9D+00
   Bfn.  Coefficient  Atom+Function         Bfn.  Coefficient  Atom+Function  
  ----- ------------  ---------------      ----- ------------  ---------------
   138      0.184263   9 C  s               342     -0.153531  21 C  s         

 Vector   29  Occ=2.000000D+00  E=-1.069504D+00
              MO Center= -5.9D-01,  4.3D-01, -1.0D-01, r^2= 1.0D+01
   Bfn.  Coefficient  Atom+Function         Bfn.  Coefficient  Atom+Function  
  ----- ------------  ---------------      ----- ------------  ---------------
   342      0.177437  21 C  s               138      0.153365   9 C  s         

 Vector   30  Occ=2.000000D+00  E=-1.025987D+00
              MO Center= -3.9D-01,  3.2D+00,  1.8D-01, r^2= 2.9D+00
   Bfn.  Coefficient  Atom+Function         Bfn.  Coefficient  Atom+Function  
  ----- ------------  ---------------      ----- ------------  ---------------
   548     -0.344021  33 C  s               412      0.320825  25 C  s         
   546      0.222272  33 C  s               444     -0.220897  27 C  s         
   410     -0.206938  25 C  s               512      0.201925  31 C  s         
   571      0.180191  34 H  s               435     -0.155242  26 H  s         

 Vector   31  Occ=2.000000D+00  E=-1.015258D+00
              MO Center= -2.2D+00, -1.6D+00,  1.0D+00, r^2= 6.3D+00
   Bfn.  Coefficient  Atom+Function         Bfn.  Coefficient  Atom+Function  
  ----- ------------  ---------------      ----- ------------  ---------------
    11      0.309095   2 C  s         

 Vector   32  Occ=2.000000D+00  E=-1.006813D+00
              MO Center=  1.7D-01,  1.3D+00, -9.5D-02, r^2= 8.4D+00
   Bfn.  Coefficient  Atom+Function         Bfn.  Coefficient  Atom+Function  
  ----- ------------  ---------------      ----- ------------  ---------------
   480     -0.220282  29 C  s               308      0.204488  19 C  s         
   478      0.173146  29 C  s               385     -0.158825  24 C  s         

 Vector   33  Occ=2.000000D+00  E=-9.173265D-01
              MO Center= -3.0D-01,  1.7D-01, -5.8D-01, r^2= 9.5D+00
   Bfn.  Coefficient  Atom+Function         Bfn.  Coefficient  Atom+Function  
  ----- ------------  ---------------      ----- ------------  ---------------
   139      0.270406   9 C  s               480     -0.227968  29 C  s         
   315      0.216106  19 C  py              144      0.212659   9 C  px        
   342      0.191883  21 C  s               172     -0.181854  11 C  s         
   349      0.171959  21 C  py              225     -0.159449  15 C  s         
   548      0.156479  33 C  s         

 Vector   34  Occ=2.000000D+00  E=-8.921475D-01
              MO Center= -1.7D-01, -2.8D-01, -5.7D-01, r^2= 9.9D+00
   Bfn.  Coefficient  Atom+Function         Bfn.  Coefficient  Atom+Function  
  ----- ------------  ---------------      ----- ------------  ---------------
   309      0.215162  19 C  s               315     -0.176654  19 C  py        
   172     -0.170864  11 C  s               138      0.158508   9 C  s         
   480      0.154736  29 C  s         

 Vector   35  Occ=2.000000D+00  E=-8.418983D-01
              MO Center= -3.4D-01,  3.1D+00,  2.0D-01, r^2= 4.2D+00
   Bfn.  Coefficient  Atom+Function         Bfn.  Coefficient  Atom+Function  
  ----- ------------  ---------------      ----- ------------  ---------------
   514      0.473557  31 C  s               412      0.418211  25 C  s         
   446     -0.399973  27 C  s               548     -0.397706  33 C  s         
   582     -0.233819  35 C  s               571      0.232164  34 H  s         
   435     -0.218659  26 H  s               537     -0.191722  32 H  s         
   513     -0.189442  31 C  s               469      0.185246  28 H  s         

 Vector   36  Occ=2.000000D+00  E=-8.352350D-01
              MO Center= -1.6D+00, -1.7D+00,  1.1D-01, r^2= 4.4D+00
   Bfn.  Coefficient  Atom+Function         Bfn.  Coefficient  Atom+Function  
  ----- ------------  ---------------      ----- ------------  ---------------
   109      0.259505   7 N  pz              128     -0.227448   8 H  s         
    54      0.210547   5 C  s               105     -0.209077   7 N  s         
   139      0.194727   9 C  s                62     -0.189079   5 C  pz        
   107      0.169953   7 N  px               80     -0.162431   6 O  s         

 Vector   37  Occ=2.000000D+00  E=-8.106100D-01
              MO Center=  2.6D-01,  1.0D+00,  3.9D-02, r^2= 9.3D+00
   Bfn.  Coefficient  Atom+Function         Bfn.  Coefficient  Atom+Function  
  ----- ------------  ---------------      ----- ------------  ---------------
   480      0.430582  29 C  s               387      0.264414  24 C  s         
   309     -0.247859  19 C  s               514     -0.231830  31 C  s         
   446     -0.230401  27 C  s               412     -0.193431  25 C  s         
   548     -0.170052  33 C  s               279      0.167519  17 N  pz        
   503     -0.166984  30 H  s               394     -0.151613  24 C  px        

 Vector   38  Occ=2.000000D+00  E=-8.062458D-01
              MO Center= -1.2D-01,  5.7D-01, -1.8D-01, r^2= 8.0D+00
   Bfn.  Coefficient  Atom+Function         Bfn.  Coefficient  Atom+Function  
  ----- ------------  ---------------      ----- ------------  ---------------
   480      0.303551  29 C  s               412     -0.258717  25 C  s         
   387      0.224052  24 C  s               279     -0.205885  17 N  pz        
   446     -0.203918  27 C  s               514     -0.194932  31 C  s         
   144      0.178268   9 C  px              298     -0.150430  18 H  s         

 Vector   39  Occ=2.000000D+00  E=-7.823569D-01
              MO Center=  1.7D+00, -9.5D-01,  2.2D-01, r^2= 4.8D+00
   Bfn.  Coefficient  Atom+Function         Bfn.  Coefficient  Atom+Function  
  ----- ------------  ---------------      ----- ------------  ---------------
   634     -0.269680  37 N  py              225      0.246994  15 C  s         
   314     -0.227370  19 C  px              580     -0.192835  35 C  s         
   587      0.193209  35 C  py              298     -0.186726  18 H  s         
   275     -0.179919  17 N  s               654      0.172046  38 H  s         
   279     -0.156802  17 N  pz              332      0.152441  20 H  s         

 Vector   40  Occ=2.000000D+00  E=-7.380171D-01
              MO Center=  8.5D-01, -1.4D+00,  1.9D-01, r^2= 6.4D+00
   Bfn.  Coefficient  Atom+Function         Bfn.  Coefficient  Atom+Function  
  ----- ------------  ---------------      ----- ------------  ---------------
   633     -0.269803  37 N  px              314      0.247236  19 C  px        
   663      0.237569  39 H  s               225     -0.222674  15 C  s         
   581     -0.219211  35 C  s               144      0.190325   9 C  px        
   584      0.166132  35 C  py        

 Vector   41  Occ=2.000000D+00  E=-7.268112D-01
              MO Center= -6.1D-01, -1.5D+00,  9.9D-03, r^2= 7.2D+00
   Bfn.  Coefficient  Atom+Function         Bfn.  Coefficient  Atom+Function  
  ----- ------------  ---------------      ----- ------------  ---------------
   144      0.372338   9 C  px              225     -0.285693  15 C  s         
   139      0.187736   9 C  s               107     -0.183714   7 N  px        
   128      0.177852   8 H  s               633      0.169359  37 N  px        
   230      0.168298  15 C  px               59      0.150045   5 C  pz        

 Vector   42  Occ=2.000000D+00  E=-7.083875D-01
              MO Center= -2.9D-01,  1.0D+00,  3.5D-02, r^2= 1.2D+01
   Bfn.  Coefficient  Atom+Function         Bfn.  Coefficient  Atom+Function  
  ----- ------------  ---------------      ----- ------------  ---------------
   139      0.151584   9 C  s               502      0.150357  30 H  s         

 Vector   43  Occ=2.000000D+00  E=-7.029569D-01
              MO Center= -4.9D-01,  3.7D-01,  3.2D-02, r^2= 1.2D+01
   Bfn.  Coefficient  Atom+Function         Bfn.  Coefficient  Atom+Function  
  ----- ------------  ---------------      ----- ------------  ---------------
   502      0.144979  30 H  s               142      0.133228   9 C  py        
   162     -0.132484  10 H  s         

 Vector   44  Occ=2.000000D+00  E=-6.945770D-01
              MO Center= -6.6D-01, -1.8D+00,  7.0D-01, r^2= 7.0D+00
   Bfn.  Coefficient  Atom+Function         Bfn.  Coefficient  Atom+Function  
  ----- ------------  ---------------      ----- ------------  ---------------
    82      0.252631   6 O  px               80      0.230905   6 O  s         
    59     -0.205182   5 C  pz               14     -0.166688   2 C  px        

 Vector   45  Occ=2.000000D+00  E=-6.656543D-01
              MO Center=  4.4D-01, -6.9D-01, -2.1D-01, r^2= 1.0D+01
   Bfn.  Coefficient  Atom+Function         Bfn.  Coefficient  Atom+Function  
  ----- ------------  ---------------      ----- ------------  ---------------
   277     -0.163933  17 N  px              276     -0.161547  17 N  s         
   311      0.161451  19 C  px               56      0.160152   5 C  s         
   608     -0.157286  36 O  px              314      0.156036  19 C  px        
   142     -0.154135   9 C  py        

 Vector   46  Occ=2.000000D+00  E=-6.551576D-01
              MO Center=  3.6D-01,  1.8D+00, -4.5D-03, r^2= 8.9D+00
   Bfn.  Coefficient  Atom+Function         Bfn.  Coefficient  Atom+Function  
  ----- ------------  ---------------      ----- ------------  ---------------
   446      0.233292  27 C  s               391     -0.182265  24 C  px        
   367      0.163196  22 H  s               418     -0.159442  25 C  pz        
   469     -0.159646  28 H  s               479      0.159193  29 C  s         
   387     -0.153390  24 C  s               366      0.152235  22 H  s         

 Vector   47  Occ=2.000000D+00  E=-6.440005D-01
              MO Center=  2.5D-01,  2.2D+00,  4.2D-01, r^2= 9.2D+00
   Bfn.  Coefficient  Atom+Function         Bfn.  Coefficient  Atom+Function  
  ----- ------------  ---------------      ----- ------------  ---------------
   537     -0.208725  32 H  s               514      0.204251  31 C  s         
   412      0.193557  25 C  s               536     -0.193813  32 H  s         
   515      0.185242  31 C  px              479      0.171966  29 C  s         
   571      0.161426  34 H  s               468     -0.159871  28 H  s         
   549     -0.158172  33 C  px              449      0.152886  27 C  pz        

 Vector   48  Occ=2.000000D+00  E=-6.390499D-01
              MO Center= -2.0D+00, -1.8D+00,  1.2D+00, r^2= 5.4D+00
   Bfn.  Coefficient  Atom+Function         Bfn.  Coefficient  Atom+Function  
  ----- ------------  ---------------      ----- ------------  ---------------
   139      0.285387   9 C  s                15      0.273559   2 C  py        
     1     -0.225305   1 H  s                44      0.212037   4 H  s         
    58      0.199758   5 C  py        

 Vector   49  Occ=2.000000D+00  E=-6.291329D-01
              MO Center=  7.3D-02, -1.8D-01, -6.1D-01, r^2= 1.0D+01
   Bfn.  Coefficient  Atom+Function         Bfn.  Coefficient  Atom+Function  
  ----- ------------  ---------------      ----- ------------  ---------------
   254      0.226357  16 O  pz              250     -0.186016  16 O  s         
   309     -0.165614  19 C  s               252     -0.160582  16 O  px        
   412      0.155509  25 C  s         

 Vector   50  Occ=2.000000D+00  E=-6.092526D-01
              MO Center= -3.9D-01, -4.1D-01,  1.5D-01, r^2= 1.1D+01
   Bfn.  Coefficient  Atom+Function         Bfn.  Coefficient  Atom+Function  
  ----- ------------  ---------------      ----- ------------  ---------------
    57      0.195259   5 C  px               82     -0.175842   6 O  px        

 Vector   51  Occ=2.000000D+00  E=-6.021799D-01
              MO Center= -3.5D-01, -8.3D-01, -1.2D-01, r^2= 1.1D+01
   Bfn.  Coefficient  Atom+Function         Bfn.  Coefficient  Atom+Function  
  ----- ------------  ---------------      ----- ------------  ---------------
   254     -0.169441  16 O  pz              144      0.167322   9 C  px        
    57      0.165680   5 C  px               82     -0.162281   6 O  px        
   225     -0.150037  15 C  s         

 Vector   52  Occ=2.000000D+00  E=-5.985343D-01
              MO Center=  7.5D-02,  2.0D+00, -3.1D-02, r^2= 9.2D+00
   Bfn.  Coefficient  Atom+Function         Bfn.  Coefficient  Atom+Function  
  ----- ------------  ---------------      ----- ------------  ---------------
   548      0.289375  33 C  s               412     -0.255834  25 C  s         
   571     -0.243751  34 H  s               445     -0.238149  27 C  s         
   513      0.235155  31 C  s               449     -0.190796  27 C  pz        
   551     -0.184793  33 C  pz              570     -0.181242  34 H  s         
   468      0.179621  28 H  s               469      0.172817  28 H  s         

 Vector   53  Occ=2.000000D+00  E=-5.963199D-01
              MO Center= -4.9D-01, -8.7D-01,  1.7D-01, r^2= 1.2D+01
   Bfn.  Coefficient  Atom+Function         Bfn.  Coefficient  Atom+Function  
  ----- ------------  ---------------      ----- ------------  ---------------
    36      0.203277   3 H  s               608      0.176281  36 O  px        
   300      0.174930  18 H  s                35      0.169778   3 H  s         

 Vector   54  Occ=2.000000D+00  E=-5.917407D-01
              MO Center=  3.4D-01, -7.4D-02,  1.6D-01, r^2= 1.4D+01
   Bfn.  Coefficient  Atom+Function         Bfn.  Coefficient  Atom+Function  
  ----- ------------  ---------------      ----- ------------  ---------------
   608      0.209283  36 O  px               35     -0.162316   3 H  s         
   346     -0.152179  21 C  py        

 Vector   55  Occ=2.000000D+00  E=-5.895506D-01
              MO Center= -7.7D-01, -8.6D-01, -6.9D-03, r^2= 1.2D+01
   Bfn.  Coefficient  Atom+Function         Bfn.  Coefficient  Atom+Function  
  ----- ------------  ---------------      ----- ------------  ---------------
    35      0.212466   3 H  s                16      0.193329   2 C  pz        
   196      0.162313  12 H  s               197      0.160555  12 H  s         
    36      0.152884   3 H  s         

 Vector   56  Occ=2.000000D+00  E=-5.771084D-01
              MO Center=  8.5D-01,  5.7D-01, -1.7D-01, r^2= 8.8D+00
   Bfn.  Coefficient  Atom+Function         Bfn.  Coefficient  Atom+Function  
  ----- ------------  ---------------      ----- ------------  ---------------
   375      0.234175  23 H  s               345      0.232929  21 C  px        
   387     -0.175639  24 C  s               229     -0.164564  15 C  pz        
   376      0.160086  23 H  s         

 Vector   57  Occ=2.000000D+00  E=-5.610232D-01
              MO Center= -3.2D-01, -3.8D-01, -4.4D-01, r^2= 1.2D+01
   Bfn.  Coefficient  Atom+Function         Bfn.  Coefficient  Atom+Function  
  ----- ------------  ---------------      ----- ------------  ---------------
   176      0.225319  11 C  py              214      0.213757  14 H  s         
   215      0.187936  14 H  s               139     -0.178020   9 C  s         
   608     -0.157115  36 O  px              583      0.156083  35 C  px        

 Vector   58  Occ=2.000000D+00  E=-5.580917D-01
              MO Center= -5.1D-01, -7.4D-01,  4.8D-01, r^2= 1.2D+01
   Bfn.  Coefficient  Atom+Function         Bfn.  Coefficient  Atom+Function  
  ----- ------------  ---------------      ----- ------------  ---------------
    83      0.176765   6 O  py                1      0.172829   1 H  s         
   583      0.170842  35 C  px              309      0.168315  19 C  s         
    15     -0.166596   2 C  py              108      0.158122   7 N  py        
   608     -0.158748  36 O  px               44     -0.150760   4 H  s         

 Vector   59  Occ=2.000000D+00  E=-5.539524D-01
              MO Center= -1.8D+00, -1.5D+00, -1.1D+00, r^2= 7.3D+00
   Bfn.  Coefficient  Atom+Function         Bfn.  Coefficient  Atom+Function  
  ----- ------------  ---------------      ----- ------------  ---------------
   196     -0.294775  12 H  s               177      0.291111  11 C  pz        
   197     -0.285218  12 H  s                12     -0.229230   2 C  s         
    55      0.199621   5 C  s               206      0.195565  13 H  s         
   109      0.182733   7 N  pz               35      0.177562   3 H  s         
   143     -0.177812   9 C  pz               36      0.166827   3 H  s         

 Vector   60  Occ=2.000000D+00  E=-5.490559D-01
              MO Center=  1.3D+00,  4.3D-01,  5.5D-01, r^2= 1.0D+01
   Bfn.  Coefficient  Atom+Function         Bfn.  Coefficient  Atom+Function  
  ----- ------------  ---------------      ----- ------------  ---------------
   412      0.228735  25 C  s               480     -0.229626  29 C  s         
   367      0.220219  22 H  s               610     -0.204823  36 O  pz        
   571     -0.198718  34 H  s               366      0.197257  22 H  s         
   635     -0.197266  37 N  pz              585     -0.185971  35 C  pz        
   276     -0.183973  17 N  s               394      0.165049  24 C  px        

 Vector   61  Occ=2.000000D+00  E=-5.390547D-01
              MO Center= -7.4D-01, -1.0D+00, -1.0D+00, r^2= 7.9D+00
   Bfn.  Coefficient  Atom+Function         Bfn.  Coefficient  Atom+Function  
  ----- ------------  ---------------      ----- ------------  ---------------
   205      0.204500  13 H  s               254     -0.200944  16 O  pz        
   206      0.198812  13 H  s               227     -0.195560  15 C  px        
   175     -0.171068  11 C  px              215     -0.154796  14 H  s         

 Vector   62  Occ=2.000000D+00  E=-5.231045D-01
              MO Center=  6.5D-02,  1.2D-01, -2.8D-01, r^2= 1.0D+01
   Bfn.  Coefficient  Atom+Function         Bfn.  Coefficient  Atom+Function  
  ----- ------------  ---------------      ----- ------------  ---------------
   367      0.198326  22 H  s               347      0.186683  21 C  pz        
   142     -0.172415   9 C  py              412     -0.171845  25 C  s         
   313     -0.162321  19 C  pz              435      0.157467  26 H  s         
   162      0.153951  10 H  s               276     -0.152214  17 N  s         
   215      0.150405  14 H  s         

 Vector   63  Occ=2.000000D+00  E=-5.096066D-01
              MO Center= -2.3D-01,  5.0D-01, -4.3D-01, r^2= 1.1D+01
   Bfn.  Coefficient  Atom+Function         Bfn.  Coefficient  Atom+Function  
  ----- ------------  ---------------      ----- ------------  ---------------
   309      0.269079  19 C  s               514     -0.248068  31 C  s         
   412     -0.227222  25 C  s               393      0.188377  24 C  pz        
   435      0.176450  26 H  s               537      0.176409  32 H  s         
   571     -0.158214  34 H  s               548      0.154895  33 C  s         
   142      0.153834   9 C  py        

 Vector   64  Occ=2.000000D+00  E=-4.992855D-01
              MO Center=  7.7D-02,  2.6D+00,  1.8D-01, r^2= 5.9D+00
   Bfn.  Coefficient  Atom+Function         Bfn.  Coefficient  Atom+Function  
  ----- ------------  ---------------      ----- ------------  ---------------
   446     -0.282884  27 C  s               352      0.278331  21 C  py        
   394     -0.277728  24 C  px              469      0.211530  28 H  s         
    13     -0.203921   2 C  s               415      0.194905  25 C  pz        
   448      0.191482  27 C  py              516      0.182135  31 C  py        
   389      0.180038  24 C  py              396     -0.177127  24 C  pz        

 Vector   65  Occ=2.000000D+00  E=-4.952966D-01
              MO Center=  2.3D-01,  2.3D+00,  1.7D-01, r^2= 6.5D+00
   Bfn.  Coefficient  Atom+Function         Bfn.  Coefficient  Atom+Function  
  ----- ------------  ---------------      ----- ------------  ---------------
   582      0.282591  35 C  s               352      0.265570  21 C  py        
   514     -0.260320  31 C  s               414      0.206314  25 C  py        
   503      0.194637  30 H  s               571     -0.191821  34 H  s         
   394     -0.187927  24 C  px              482      0.176251  29 C  py        
   367     -0.170623  22 H  s               548      0.170863  33 C  s         

 Vector   66  Occ=2.000000D+00  E=-4.894717D-01
              MO Center=  8.6D-01,  1.4D+00,  2.7D-01, r^2= 7.8D+00
   Bfn.  Coefficient  Atom+Function         Bfn.  Coefficient  Atom+Function  
  ----- ------------  ---------------      ----- ------------  ---------------
   367      0.263986  22 H  s               349      0.229414  21 C  py        
   582     -0.220521  35 C  s               435     -0.214182  26 H  s         
   412      0.208207  25 C  s               313     -0.203947  19 C  pz        
   537     -0.196361  32 H  s               549     -0.188691  33 C  px        
   480     -0.186252  29 C  s               333      0.177051  20 H  s         

 Vector   67  Occ=2.000000D+00  E=-4.529539D-01
              MO Center= -7.2D-01, -2.0D+00,  3.4D-01, r^2= 5.1D+00
   Bfn.  Coefficient  Atom+Function         Bfn.  Coefficient  Atom+Function  
  ----- ------------  ---------------      ----- ------------  ---------------
    84      0.306734   6 O  pz               87      0.248693   6 O  pz        
   276      0.222032  17 N  s                83     -0.216838   6 O  py        
   139      0.207592   9 C  s               252      0.187591  16 O  px        
    82     -0.184297   6 O  px               86     -0.177234   6 O  py        
   108      0.174919   7 N  py              225     -0.173758  15 C  s         

 Vector   68  Occ=2.000000D+00  E=-4.512549D-01
              MO Center= -7.7D-01, -2.1D+00,  1.1D-01, r^2= 4.8D+00
   Bfn.  Coefficient  Atom+Function         Bfn.  Coefficient  Atom+Function  
  ----- ------------  ---------------      ----- ------------  ---------------
    84      0.388080   6 O  pz               87      0.307972   6 O  pz        
   108     -0.252645   7 N  py              111     -0.221162   7 N  py        
   253     -0.219504  16 O  py              139     -0.203456   9 C  s         
    13      0.184327   2 C  s               252     -0.172822  16 O  px        
   256     -0.170957  16 O  py              234      0.151495  15 C  py        

 Vector   69  Occ=2.000000D+00  E=-4.310906D-01
              MO Center=  1.7D+00, -9.8D-01, -4.4D-01, r^2= 6.6D+00
   Bfn.  Coefficient  Atom+Function         Bfn.  Coefficient  Atom+Function  
  ----- ------------  ---------------      ----- ------------  ---------------
   609      0.350401  36 O  py              333      0.333587  20 H  s         
   253     -0.310599  16 O  py              612      0.275142  36 O  py        
   256     -0.240549  16 O  py              309     -0.224011  19 C  s         
   278      0.184024  17 N  py              281      0.180864  17 N  py        
   279     -0.170279  17 N  pz              300      0.163271  18 H  s         

 Vector   70  Occ=2.000000D+00  E=-4.089902D-01
              MO Center= -1.2D-01, -1.6D+00, -8.7D-01, r^2= 5.6D+00
   Bfn.  Coefficient  Atom+Function         Bfn.  Coefficient  Atom+Function  
  ----- ------------  ---------------      ----- ------------  ---------------
   252      0.307715  16 O  px              108     -0.250969   7 N  py        
   255      0.236147  16 O  px              111     -0.233506   7 N  py        
   139      0.225012   9 C  s               144      0.207164   9 C  px        
   106      0.185463   7 N  s                83      0.179816   6 O  py        
   163     -0.178556  10 H  s               609      0.158927  36 O  py        

 Vector   71  Occ=2.000000D+00  E=-3.905839D-01
              MO Center=  3.0D+00, -1.4D+00,  5.3D-01, r^2= 2.4D+00
   Bfn.  Coefficient  Atom+Function         Bfn.  Coefficient  Atom+Function  
  ----- ------------  ---------------      ----- ------------  ---------------
   610      0.406169  36 O  pz              635     -0.388589  37 N  pz        
   638     -0.344125  37 N  pz              613      0.318146  36 O  pz        
   412     -0.188476  25 C  s               634     -0.183400  37 N  py        
   139     -0.175927   9 C  s         

 Vector   72  Occ=2.000000D+00  E=-3.829490D-01
              MO Center=  1.9D+00, -7.9D-01, -3.5D-01, r^2= 4.7D+00
   Bfn.  Coefficient  Atom+Function         Bfn.  Coefficient  Atom+Function  
  ----- ------------  ---------------      ----- ------------  ---------------
   609      0.330263  36 O  py              278     -0.280599  17 N  py        
   612      0.268055  36 O  py              281     -0.264715  17 N  py        
   253      0.186106  16 O  py              279      0.159359  17 N  pz        
   587     -0.154264  35 C  py              282      0.152916  17 N  pz        

 Vector   73  Occ=2.000000D+00  E=-3.474208D-01
              MO Center= -3.9D-01,  3.2D+00,  1.7D-01, r^2= 3.2D+00
   Bfn.  Coefficient  Atom+Function         Bfn.  Coefficient  Atom+Function  
  ----- ------------  ---------------      ----- ------------  ---------------
   448      0.215092  27 C  py              550     -0.215899  33 C  py        
   414      0.185673  25 C  py              516     -0.178551  31 C  py        
   553     -0.166592  33 C  py              549     -0.152156  33 C  px        
   447      0.150091  27 C  px        

 Vector   74  Occ=2.000000D+00  E=-3.372718D-01
              MO Center= -3.0D-01,  3.1D+00,  1.9D-01, r^2= 3.8D+00
   Bfn.  Coefficient  Atom+Function         Bfn.  Coefficient  Atom+Function  
  ----- ------------  ---------------      ----- ------------  ---------------
   482     -0.225559  29 C  py              389      0.217279  24 C  py        
   392      0.201952  24 C  py              388      0.165361  24 C  px        
   485     -0.165610  29 C  py              481     -0.160300  29 C  px        
   284      0.154093  17 N  py              414      0.150903  25 C  py        

 Vector   75  Occ=0.000000D+00  E= 1.630870D-02
              MO Center= -4.4D+00, -3.2D-01,  1.2D+00, r^2= 2.2D+01
   Bfn.  Coefficient  Atom+Function         Bfn.  Coefficient  Atom+Function  
  ----- ------------  ---------------      ----- ------------  ---------------
   300      6.900662  18 H  s               514     -3.112872  31 C  s         
    65      2.335346   5 C  pz              387      2.343882  24 C  s         
   538     -2.048924  32 H  s               394     -2.005467  24 C  px        
   233     -1.916742  15 C  px                3     -1.718357   1 H  s         
   521     -1.719259  31 C  px               63     -1.594547   5 C  px        

 Vector   76  Occ=0.000000D+00  E= 3.034634D-02
              MO Center= -3.7D+00,  9.9D-01,  3.8D-01, r^2= 3.6D+01
   Bfn.  Coefficient  Atom+Function         Bfn.  Coefficient  Atom+Function  
  ----- ------------  ---------------      ----- ------------  ---------------
   233      3.999504  15 C  px              300      3.659519  18 H  s         
   514     -3.542879  31 C  s               394     -3.377263  24 C  px        
   318      2.931213  19 C  py              395      2.849558  24 C  py        
   106      2.809945   7 N  s               235      2.662714  15 C  pz        
   207      2.470473  13 H  s               538     -2.433666  32 H  s         

 Vector   77  Occ=0.000000D+00  E= 3.152454D-02
              MO Center= -2.6D+00,  1.4D+00,  1.8D-01, r^2= 3.9D+01
   Bfn.  Coefficient  Atom+Function         Bfn.  Coefficient  Atom+Function  
  ----- ------------  ---------------      ----- ------------  ---------------
   480      3.609437  29 C  s               548     -3.479465  33 C  s         
    65      3.260843   5 C  pz              106      2.897854   7 N  s         
   504      2.767487  30 H  s               523      2.435085  31 C  pz        
    56     -2.357601   5 C  s               446      2.293195  27 C  s         
   396      1.896936  24 C  pz              582     -1.897663  35 C  s         

 Vector   78  Occ=0.000000D+00  E= 3.958172D-02
              MO Center= -7.6D-01,  1.3D+00,  1.1D-01, r^2= 4.3D+01
   Bfn.  Coefficient  Atom+Function         Bfn.  Coefficient  Atom+Function  
  ----- ------------  ---------------      ----- ------------  ---------------
   300      5.568804  18 H  s               446     -4.481041  27 C  s         
   470     -3.836628  28 H  s               480      3.837598  29 C  s         
   396     -3.539585  24 C  pz              455     -3.440559  27 C  pz        
   276      3.253178  17 N  s               395      3.044312  24 C  py        
   317      2.781266  19 C  px              572     -2.694849  34 H  s         

 Vector   79  Occ=0.000000D+00  E= 4.528588D-02
              MO Center= -2.8D+00, -2.7D-01,  1.3D-01, r^2= 4.4D+01
   Bfn.  Coefficient  Atom+Function         Bfn.  Coefficient  Atom+Function  
  ----- ------------  ---------------      ----- ------------  ---------------
   480      3.228581  29 C  s               300      3.033046  18 H  s         
   276      2.893329  17 N  s                 3      2.650699   1 H  s         
   572     -2.581836  34 H  s               207     -2.240203  13 H  s         
    65     -1.979763   5 C  pz              504      1.901758  30 H  s         
   538     -1.876240  32 H  s               235     -1.847334  15 C  pz        

 Vector   80  Occ=0.000000D+00  E= 4.905052D-02
              MO Center= -1.8D+00,  1.5D+00, -5.6D-01, r^2= 4.5D+01
   Bfn.  Coefficient  Atom+Function         Bfn.  Coefficient  Atom+Function  
  ----- ------------  ---------------      ----- ------------  ---------------
   480      6.459283  29 C  s               504      5.294686  30 H  s         
   487      3.495621  29 C  px              387      3.059532  24 C  s         
   470     -2.899121  28 H  s               164      2.725924  10 H  s         
   446     -2.734545  27 C  s               455     -2.717245  27 C  pz        
   488     -2.724596  29 C  py               46     -2.641283   4 H  s         

 Vector   81  Occ=0.000000D+00  E= 5.297637D-02
              MO Center= -1.3D+00,  4.2D-01,  6.1D-01, r^2= 4.3D+01
   Bfn.  Coefficient  Atom+Function         Bfn.  Coefficient  Atom+Function  
  ----- ------------  ---------------      ----- ------------  ---------------
   480      6.428768  29 C  s               538     -3.920982  32 H  s         
   394     -3.629699  24 C  px              412     -3.574383  25 C  s         
    65     -3.493064   5 C  pz              514     -3.492034  31 C  s         
   395      3.208559  24 C  py               56      2.925061   5 C  s         
    37      2.902620   3 H  s               216      2.910811  14 H  s         

 Vector   82  Occ=0.000000D+00  E= 5.507653D-02
              MO Center= -4.9D-01, -2.2D-01,  2.5D-01, r^2= 4.3D+01
   Bfn.  Coefficient  Atom+Function         Bfn.  Coefficient  Atom+Function  
  ----- ------------  ---------------      ----- ------------  ---------------
   514      5.501421  31 C  s               130     -3.523349   8 H  s         
   198      3.191540  12 H  s               412      3.189689  25 C  s         
   387     -3.088342  24 C  s               538      2.697881  32 H  s         
   377     -2.550929  23 H  s               351      2.475619  21 C  px        
   555      2.398229  33 C  px              548     -2.379619  33 C  s         

 Vector   83  Occ=0.000000D+00  E= 5.810358D-02
              MO Center=  9.3D-01, -1.8D+00,  9.3D-01, r^2= 4.0D+01
   Bfn.  Coefficient  Atom+Function         Bfn.  Coefficient  Atom+Function  
  ----- ------------  ---------------      ----- ------------  ---------------
   572      4.940838  34 H  s               514     -4.360342  31 C  s         
   412     -3.384946  25 C  s               632     -3.395294  37 N  s         
   656     -2.915603  38 H  s               207      2.892362  13 H  s         
   590     -2.880657  35 C  py              557     -2.698891  33 C  pz        
   436     -2.569272  26 H  s                13      2.317073   2 C  s         

 Vector   84  Occ=0.000000D+00  E= 6.549003D-02
              MO Center= -3.6D-01,  1.5D+00, -4.9D-01, r^2= 4.5D+01
   Bfn.  Coefficient  Atom+Function         Bfn.  Coefficient  Atom+Function  
  ----- ------------  ---------------      ----- ------------  ---------------
   446      6.077660  27 C  s               470      5.270961  28 H  s         
    56     -4.053178   5 C  s               436     -3.995587  26 H  s         
   548      4.004393  33 C  s               572      3.883406  34 H  s         
   455      3.685304  27 C  pz              557     -3.182091  33 C  pz        
   419      2.913507  25 C  px              412     -2.804060  25 C  s         

 Vector   85  Occ=0.000000D+00  E= 6.989968D-02
              MO Center= -1.5D+00, -1.7D-01, -3.3D-01, r^2= 4.7D+01
   Bfn.  Coefficient  Atom+Function         Bfn.  Coefficient  Atom+Function  
  ----- ------------  ---------------      ----- ------------  ---------------
    13      6.706574   2 C  s               300      5.792714  18 H  s         
   207      5.545052  13 H  s               582     -5.177999  35 C  s         
   387     -5.017623  24 C  s               480     -4.634772  29 C  s         
   514      4.588553  31 C  s               538      4.385371  32 H  s         
    65     -4.344122   5 C  pz              149     -4.230397   9 C  pz        

 Vector   86  Occ=0.000000D+00  E= 7.204038D-02
              MO Center= -8.8D-01, -5.3D-01,  7.3D-01, r^2= 4.6D+01
   Bfn.  Coefficient  Atom+Function         Bfn.  Coefficient  Atom+Function  
  ----- ------------  ---------------      ----- ------------  ---------------
     3      4.678597   1 H  s               446      4.555419  27 C  s         
   387     -3.689481  24 C  s               436     -3.424056  26 H  s         
   300     -3.138023  18 H  s               470      3.043849  28 H  s         
   164     -3.006474  10 H  s               557     -2.898430  33 C  pz        
    37     -2.855922   3 H  s                46     -2.823666   4 H  s         

 Vector   87  Occ=0.000000D+00  E= 7.349353D-02
              MO Center= -2.1D+00, -4.3D-01,  3.9D-01, r^2= 4.0D+01
   Bfn.  Coefficient  Atom+Function         Bfn.  Coefficient  Atom+Function  
  ----- ------------  ---------------      ----- ------------  ---------------
    46      5.934619   4 H  s               216     -5.335046  14 H  s         
   412     -5.026778  25 C  s                56      4.873197   5 C  s         
   207      4.516654  13 H  s               276     -3.497816  17 N  s         
   446     -3.210483  27 C  s               233      3.079254  15 C  px        
   396     -2.961449  24 C  pz              149     -2.900010   9 C  pz        

 Vector   88  Occ=0.000000D+00  E= 8.074298D-02
              MO Center=  4.1D-01,  1.3D+00, -9.5D-01, r^2= 3.7D+01
   Bfn.  Coefficient  Atom+Function         Bfn.  Coefficient  Atom+Function  
[...]
   412      5.760909  25 C  s               226      5.370509  15 C  s         

 Vector  191  Occ=0.000000D+00  E= 4.409952D-01
              MO Center= -2.7D-01, -2.2D-01, -2.3D-01, r^2= 2.2D+01
   Bfn.  Coefficient  Atom+Function         Bfn.  Coefficient  Atom+Function  
  ----- ------------  ---------------      ----- ------------  ---------------
   233     16.194869  15 C  px              582     13.288745  35 C  s         
   412    -11.653289  25 C  s               548     10.412296  33 C  s         
   235     10.141829  15 C  pz              394    -10.027784  24 C  px        
   319      9.643515  19 C  pz              514     -8.999058  31 C  s         
   226      8.316445  15 C  s               395      7.966832  24 C  py        

 Vector  192  Occ=0.000000D+00  E= 4.421201D-01
              MO Center= -3.4D-01,  1.6D-01, -1.1D-01, r^2= 2.4D+01
   Bfn.  Coefficient  Atom+Function         Bfn.  Coefficient  Atom+Function  
  ----- ------------  ---------------      ----- ------------  ---------------
   412     16.194174  25 C  s               446    -12.727346  27 C  s         
   548    -12.535693  33 C  s                13    -10.707039   2 C  s         
   226     10.690987  15 C  s               396      8.446942  24 C  pz        
   420      8.137126  25 C  py              632      7.888724  37 N  s         
    65      7.762039   5 C  pz               56     -7.609156   5 C  s         

 Vector  193  Occ=0.000000D+00  E= 4.469126D-01
              MO Center= -3.3D-01, -4.2D-01, -6.3D-01, r^2= 2.3D+01
   Bfn.  Coefficient  Atom+Function         Bfn.  Coefficient  Atom+Function  
  ----- ------------  ---------------      ----- ------------  ---------------
   514     13.898907  31 C  s               234    -12.357797  15 C  py        
    56    -10.646454   5 C  s               480      9.060604  29 C  s         
   582     -8.826365  35 C  s               548     -7.922493  33 C  s         
   319     -7.824975  19 C  pz              276      7.035885  17 N  s         
   300      6.905284  18 H  s               555      6.889374  33 C  px        

 Vector  194  Occ=0.000000D+00  E= 4.489044D-01
              MO Center=  2.7D-01, -7.3D-02,  1.3D-01, r^2= 2.0D+01
   Bfn.  Coefficient  Atom+Function         Bfn.  Coefficient  Atom+Function  
  ----- ------------  ---------------      ----- ------------  ---------------
   276    -10.878151  17 N  s                56     10.405756   5 C  s         
   632     -8.817823  37 N  s               387      8.700182  24 C  s         
   446     -7.794073  27 C  s                12     -5.927686   2 C  s         
   344      5.781953  21 C  s                 2      5.398134   1 H  s         
   174     -5.411079  11 C  s               514     -5.205802  31 C  s         

 Vector  195  Occ=0.000000D+00  E= 4.528402D-01
              MO Center= -4.3D-01,  3.3D-01,  3.0D-01, r^2= 2.3D+01
   Bfn.  Coefficient  Atom+Function         Bfn.  Coefficient  Atom+Function  
  ----- ------------  ---------------      ----- ------------  ---------------
   300     11.698755  18 H  s               446      9.493243  27 C  s         
   387     -7.856417  24 C  s                12     -7.162299   2 C  s         
   480     -7.002872  29 C  s                56     -6.373283   5 C  s         
   548      5.238595  33 C  s                45      5.119917   4 H  s         
   572     -4.992297  34 H  s               557      4.086536  33 C  pz        

 Vector  196  Occ=0.000000D+00  E= 4.551071D-01
              MO Center=  2.8D-01, -4.0D-01,  1.6D-01, r^2= 2.2D+01
   Bfn.  Coefficient  Atom+Function         Bfn.  Coefficient  Atom+Function  
  ----- ------------  ---------------      ----- ------------  ---------------
    56     15.206329   5 C  s               446    -14.660197  27 C  s         
    13    -11.777511   2 C  s               582     11.039546  35 C  s         
   276    -10.390582  17 N  s               318      9.696295  19 C  py        
   140      8.165252   9 C  s               394     -7.835169  24 C  px        
   174     -7.624588  11 C  s               106     -7.457909   7 N  s         

 Vector  197  Occ=0.000000D+00  E= 4.573363D-01
              MO Center= -5.7D-01, -5.6D-02,  7.4D-01, r^2= 2.1D+01
   Bfn.  Coefficient  Atom+Function         Bfn.  Coefficient  Atom+Function  
  ----- ------------  ---------------      ----- ------------  ---------------
   480     10.408411  29 C  s               234     10.186429  15 C  py        
   318      9.889160  19 C  py              446     -9.366143  27 C  s         
    56      9.188952   5 C  s               140      9.202612   9 C  s         
   233      8.946676  15 C  px              352      8.900205  21 C  py        
   300     -8.699190  18 H  s               226      8.593772  15 C  s         

 Vector  198  Occ=0.000000D+00  E= 4.595725D-01
              MO Center= -4.2D-01, -3.8D-01,  3.8D-01, r^2= 2.2D+01
   Bfn.  Coefficient  Atom+Function         Bfn.  Coefficient  Atom+Function  
  ----- ------------  ---------------      ----- ------------  ---------------
   276     14.394821  17 N  s               300     12.430242  18 H  s         
   582     -9.790529  35 C  s               174     -8.478629  11 C  s         
    56     -8.106481   5 C  s               317      6.811653  19 C  px        
   233     -6.375236  15 C  px               45      6.318335   4 H  s         
   106      6.203099   7 N  s               284     -6.220914  17 N  py        

 Vector  199  Occ=0.000000D+00  E= 4.648128D-01
              MO Center= -5.6D-01, -5.8D-02, -7.8D-01, r^2= 2.1D+01
   Bfn.  Coefficient  Atom+Function         Bfn.  Coefficient  Atom+Function  
  ----- ------------  ---------------      ----- ------------  ---------------
   276     14.981569  17 N  s               548     13.822154  33 C  s         
   480    -10.362703  29 C  s                13      8.265831   2 C  s         
   412     -7.759832  25 C  s               149     -6.700440   9 C  pz        
   318      6.710001  19 C  py              300     -6.644266  18 H  s         
   555     -6.425600  33 C  px               12      6.182267   2 C  s         

 Vector  200  Occ=0.000000D+00  E= 4.737044D-01
              MO Center= -7.5D-01, -4.8D-01, -5.6D-01, r^2= 2.0D+01
   Bfn.  Coefficient  Atom+Function         Bfn.  Coefficient  Atom+Function  
  ----- ------------  ---------------      ----- ------------  ---------------
   174     13.403810  11 C  s                13     13.305662   2 C  s         
   300    -13.063401  18 H  s               197     -7.960027  12 H  s         
   514      7.909236  31 C  s               412      7.797358  25 C  s         
   147      7.327272   9 C  px              317      7.219441  19 C  px        
   215     -6.991301  14 H  s               284      6.898605  17 N  py        

 Vector  201  Occ=0.000000D+00  E= 4.786038D-01
              MO Center= -1.6D-01,  8.4D-01, -1.3D-01, r^2= 2.1D+01
   Bfn.  Coefficient  Atom+Function         Bfn.  Coefficient  Atom+Function  
  ----- ------------  ---------------      ----- ------------  ---------------
   310     11.961281  19 C  s               582     11.605580  35 C  s         
   234    -10.618436  15 C  py              233    -10.020050  15 C  px        
    13     -9.656934   2 C  s               387     -8.538862  24 C  s         
   548      8.462463  33 C  s               106     -7.870670   7 N  s         
   352      7.214860  21 C  py              480     -6.828025  29 C  s         

 Vector  202  Occ=0.000000D+00  E= 4.802406D-01
              MO Center=  4.5D-01,  4.4D-01, -1.8D-01, r^2= 2.1D+01
   Bfn.  Coefficient  Atom+Function         Bfn.  Coefficient  Atom+Function  
  ----- ------------  ---------------      ----- ------------  ---------------
   412     25.605960  25 C  s               548    -18.360424  33 C  s         
   174    -18.103937  11 C  s                56     12.554205   5 C  s         
   514     12.524768  31 C  s               446    -11.227787  27 C  s         
   632     -8.777641  37 N  s               226      8.556926  15 C  s         
   480     -8.456133  29 C  s               396      7.969448  24 C  pz        

 Vector  203  Occ=0.000000D+00  E= 4.860745D-01
              MO Center= -1.1D+00,  1.8D-02,  1.4D-01, r^2= 2.2D+01
   Bfn.  Coefficient  Atom+Function         Bfn.  Coefficient  Atom+Function  
  ----- ------------  ---------------      ----- ------------  ---------------
    13     23.137016   2 C  s               276     19.629582  17 N  s         
   317     15.819856  19 C  px              446     12.828808  27 C  s         
   480    -11.993444  29 C  s                65    -10.655927   5 C  pz        
   233     10.203986  15 C  px              140     -9.873752   9 C  s         
   548      9.088084  33 C  s               351     -8.977731  21 C  px        

 Vector  204  Occ=0.000000D+00  E= 4.896106D-01
              MO Center= -3.7D-01, -1.0D-01, -2.3D-01, r^2= 2.0D+01
   Bfn.  Coefficient  Atom+Function         Bfn.  Coefficient  Atom+Function  
  ----- ------------  ---------------      ----- ------------  ---------------
   632     10.484281  37 N  s               300     10.047744  18 H  s         
   115      8.971722   7 N  pz              582     -8.749517  35 C  s         
   276      5.471205  17 N  s               173     -5.390158  11 C  s         
   310     -5.283043  19 C  s               590      5.009144  35 C  py        
   479     -4.874829  29 C  s               367      4.838434  22 H  s         

 Vector  205  Occ=0.000000D+00  E= 4.927636D-01
              MO Center= -3.3D-01,  7.2D-01, -2.1D-01, r^2= 2.2D+01
   Bfn.  Coefficient  Atom+Function         Bfn.  Coefficient  Atom+Function  
  ----- ------------  ---------------      ----- ------------  ---------------
   387     10.231338  24 C  s               300     -9.933971  18 H  s         
    12      9.678810   2 C  s               514     -8.251706  31 C  s         
   149      7.910112   9 C  pz              235     -6.745929  15 C  pz        
    45     -5.806483   4 H  s                56      5.557896   5 C  s         
   226      5.486523  15 C  s               376     -5.463915  23 H  s         

 Vector  206  Occ=0.000000D+00  E= 4.968761D-01
              MO Center= -1.2D-01, -5.2D-01,  1.7D-01, r^2= 1.9D+01
   Bfn.  Coefficient  Atom+Function         Bfn.  Coefficient  Atom+Function  
  ----- ------------  ---------------      ----- ------------  ---------------
   276     22.204369  17 N  s               412    -20.852062  25 C  s         
   300     19.234419  18 H  s               514    -15.463031  31 C  s         
    56    -12.732645   5 C  s               140    -12.681571   9 C  s         
   548     12.665729  33 C  s               284    -11.300507  17 N  py        
   396    -11.114366  24 C  pz              226     -8.908520  15 C  s         

 Vector  207  Occ=0.000000D+00  E= 5.032658D-01
              MO Center= -4.9D-01,  4.0D-01, -4.3D-02, r^2= 2.1D+01
   Bfn.  Coefficient  Atom+Function         Bfn.  Coefficient  Atom+Function  
  ----- ------------  ---------------      ----- ------------  ---------------
    56     17.405702   5 C  s               174    -17.420941  11 C  s         
   173     -9.746135  11 C  s               387     -9.014563  24 C  s         
   582      8.127647  35 C  s               147     -7.995409   9 C  px        
   309      7.186846  19 C  s               206      6.647936  13 H  s         
    12      6.566710   2 C  s               446      5.965125  27 C  s         


 center of mass
 --------------
 x =   0.09145445 y =  -0.01351243 z =  -0.01232891

 moments of inertia (a.u.)
 ------------------
        6501.796422417816          -0.000000000000          -0.000000000000
          -0.000000000000        4978.515399931192          -0.000000000000
          -0.000000000000          -0.000000000000        8280.399454905228

  Mulliken analysis of the total density
  --------------------------------------

    Atom       Charge   Shell Charges
 -----------   ------   -------------------------------------------------------
    1 H    1     0.81   0.76  0.08  0.01  0.03 -0.07
    2 C    6     6.37   2.01  0.66  0.30  0.15  2.07  1.01 -0.01  0.06  0.11
    3 H    1     0.96   0.76  0.22  0.01  0.03 -0.06
    4 H    1     0.85   0.76  0.12  0.01  0.03 -0.07
    5 C    6     5.16   2.01  0.68  0.09 -0.04  1.90  0.38 -0.08  0.24 -0.03
    6 O    8     8.79   2.01  0.82  0.99  0.18  2.80  1.85  0.15  0.02 -0.01
    7 N    7     7.46   2.01  0.72  0.81 -0.19  2.45  1.44  0.13  0.05  0.04
    8 H    1     0.94   0.77  0.20 -0.04  0.05 -0.04
    9 C    6     6.37   2.01  0.66  0.09  0.04  1.99  1.33 -0.03  0.14  0.14
   10 H    1     1.12   0.78  0.26  0.03  0.03  0.03
   11 C    6     5.79   2.01  0.66  0.30  0.16  2.04  0.59 -0.05  0.07  0.02
   12 H    1     0.92   0.76  0.21 -0.01  0.03 -0.08
   13 H    1     0.97   0.77  0.25  0.01  0.03 -0.08
   14 H    1     0.92   0.77  0.17  0.04  0.03 -0.08
   15 C    6     4.72   2.01  0.68  0.04 -0.06  1.89  0.13  0.09  0.24 -0.29
   16 O    8     8.87   2.01  0.82  1.05  0.21  2.78  1.85  0.14  0.01 -0.00
   17 N    7     7.31   2.01  0.72  0.82 -0.21  2.45  1.44 -0.02  0.06  0.03
   18 H    1     1.00   0.77  0.23  0.06  0.05 -0.11
   19 C    6     6.39   2.01  0.67  0.15  0.01  1.99  1.14  0.19  0.14  0.09
   20 H    1     1.10   0.78  0.28 -0.02  0.03  0.03
   21 C    6     5.73   2.01  0.66  0.11 -0.06  2.04  0.81  0.07  0.09 -0.01
   22 H    1     1.24   0.79  0.52 -0.03  0.03 -0.06
   23 H    1     0.96   0.77  0.25 -0.02  0.03 -0.08
   24 C    6     6.18   2.01  0.66  0.21 -0.05  1.99  0.90  0.03  0.12  0.31
   25 C    6     5.13   2.01  0.66  0.09 -0.53  2.01  0.78  0.23  0.09 -0.21
   26 H    1     1.69   0.78  0.86 -0.00  0.03  0.02
   27 C    6     5.46   2.01  0.66  0.24 -0.42  1.99  0.82  0.30  0.09 -0.23
   28 H    1     1.55   0.78  0.73 -0.01  0.03  0.02
   29 C    6     5.43   2.01  0.66  0.13 -0.34  2.00  0.75  0.33  0.09 -0.20
   30 H    1     1.55   0.78  0.73 -0.00  0.03  0.01
   31 C    6     5.24   2.01  0.66  0.11 -0.40  1.99  0.74  0.30  0.09 -0.26
   32 H    1     1.59   0.78  0.77 -0.01  0.03  0.02
   33 C    6     5.25   2.01  0.66  0.17 -0.46  2.00  0.77  0.20  0.09 -0.20
   34 H    1     1.72   0.79  0.90 -0.01  0.03  0.01
   35 C    6     4.57   2.01  0.68  0.09  0.02  1.89 -0.19 -0.01  0.24 -0.15
   36 O    8     8.83   2.01  0.82  1.03  0.19  2.79  1.84  0.15  0.01 -0.01
   37 N    7     7.15   2.01  0.72  0.81 -0.21  2.46  1.23  0.11  0.04 -0.02
   38 H    1     1.03   0.76  0.25 -0.00  0.05 -0.02
   39 H    1     0.88   0.73  0.23 -0.01  0.06 -0.13

       Multipole analysis of the density wrt the origin
       ------------------------------------------------

     L   x y z        total         open         nuclear
     -   - - -        -----         ----         -------
     0   0 0 0     -0.000000      0.000000    148.000000

     1   1 0 0     -3.810305      0.000000     -0.000000
     1   0 1 0      0.576666      0.000000     -0.000000
     1   0 0 1      0.805539      0.000000     -0.000000

     2   2 0 0    -94.668575      0.000000   1856.920956
     2   1 1 0      5.317216      0.000000     19.922520
     2   1 0 1      0.560188      0.000000      2.137475
     2   0 2 0    -88.416854      0.000000   2653.398206
     2   0 1 1     -4.808918      0.000000    -12.697999
     2   0 0 2    -89.702930      0.000000    918.515440


 Task  times  cpu:     6518.1s     wall:     6612.6s


                                NWChem Input Module
                                -------------------


 Summary of allocated global arrays
-----------------------------------
  No active global arrays


MA_summarize_allocated_blocks: starting scan ...
MA_summarize_allocated_blocks: scan completed: 0 heap blocks, 0 stack blocks
MA usage statistics:

	allocation statistics:
					      heap	     stack
					      ----	     -----
	current number of blocks	         0	         0
	maximum number of blocks	        16	        14
	current total bytes		         0	         0
	maximum total bytes		    142976	  30457960
	maximum total K-bytes		       143	     30458
	maximum total M-bytes		         1	        31


                                     CITATION
                                     --------
                Please cite the following reference when publishing
                           results obtained with NWChem:

          E. Apra, E. J. Bylaska, W. A. de Jong, N. Govind, K. Kowalski,
       T. P. Straatsma, M. Valiev, H. J. J. van Dam, Y. Alexeev, J. Anchell,
       V. Anisimov, F. W. Aquino, R. Atta-Fynn, J. Autschbach, N. P. Bauman,
     J. C. Becca, D. E. Bernholdt, K. Bhaskaran-Nair, S. Bogatko, P. Borowski,
         J. Boschen, J. Brabec, A. Bruner, E. Cauet, Y. Chen, G. N. Chuev,
      C. J. Cramer, J. Daily, M. J. O. Deegan, T. H. Dunning Jr., M. Dupuis,
   K. G. Dyall, G. I. Fann, S. A. Fischer, A. Fonari, H. Fruchtl, L. Gagliardi,
      J. Garza, N. Gawande, S. Ghosh, K. Glaesemann, A. W. Gotz, J. Hammond,
       V. Helms, E. D. Hermes, K. Hirao, S. Hirata, M. Jacquelin, L. Jensen,
   B. G. Johnson, H. Jonsson, R. A. Kendall, M. Klemm, R. Kobayashi, V. Konkov,
      S. Krishnamoorthy, M. Krishnan, Z. Lin, R. D. Lins, R. J. Littlefield,
      A. J. Logsdail, K. Lopata, W. Ma, A. V. Marenich, J. Martin del Campo,
   D. Mejia-Rodriguez, J. E. Moore, J. M. Mullin, T. Nakajima, D. R. Nascimento,
    J. A. Nichols, P. J. Nichols, J. Nieplocha, A. Otero-de-la-Roza, B. Palmer,
    A. Panyala, T. Pirojsirikul, B. Peng, R. Peverati, J. Pittner, L. Pollack,
   R. M. Richard, P. Sadayappan, G. C. Schatz, W. A. Shelton, D. W. Silverstein,
   D. M. A. Smith, T. A. Soares, D. Song, M. Swart, H. L. Taylor, G. S. Thomas,
            V. Tipparaju, D. G. Truhlar, K. Tsemekhman, T. Van Voorhis,
      A. Vazquez-Mayagoitia, P. Verma, O. Villa, A. Vishnu, K. D. Vogiatzis,
        D. Wang, J. H. Weare, M. J. Williamson, T. L. Windus, K. Wolinski,
        A. T. Wong, Q. Wu, C. Yang, Q. Yu, M. Zacharias, Z. Zhang, Y. Zhao,
                                and R. J. Harrison
                        "NWChem: Past, present, and future
                         J. Chem. Phys. 152, 184102 (2020)
                               doi:10.1063/5.0004997

                                      AUTHORS
                                      -------
  E. Apra, E. J. Bylaska, N. Govind, K. Kowalski, M. Valiev, D. Mejia-Rodriguez,
       A. Kunitsa, N. P. Bauman, A. Panyala, W. A. de Jong, T. P. Straatsma,
   H. J. J. van Dam, D. Wang, T. L. Windus, J. Hammond, J. Autschbach, A. Woods,
    K. Bhaskaran-Nair, J. Brabec, K. Lopata, S. A. Fischer, S. Krishnamoorthy,
     M. Jacquelin, W. Ma, M. Klemm, O. Villa, Y. Chen, V. Anisimov, F. Aquino,
     S. Hirata, M. T. Hackler, E. Hermes, L. Jensen, J. E. Moore, J. C. Becca,
      V. Konjkov, T. Risthaus, M. Malagoli, A. Marenich, A. Otero-de-la-Roza,
        J. Mullin, P. Nichols, R. Peverati, J. Pittner, Y. Zhao, P.-D. Fan,
        A. Fonari, M. J. Williamson, R. J. Harrison, J. R. Rehr, M. Dupuis,
     D. Silverstein, D. M. A. Smith, J. Nieplocha, V. Tipparaju, M. Krishnan,
     B. E. Van Kuiken, A. Vazquez-Mayagoitia, M. Swart, Q. Wu, T. Van Voorhis,
     A. A. Auer, M. Nooijen, L. D. Crosby, E. Brown, G. Cisneros, G. I. Fann,
   H. Fruchtl, J. Garza, K. Hirao, R. A. Kendall, J. A. Nichols, K. Tsemekhman,
    K. Wolinski, J. Anchell, D. E. Bernholdt, P. Borowski, T. Clark, D. Clerc,
   H. Dachsel, M. J. O. Deegan, K. Dyall, D. Elwood, E. Glendening, M. Gutowski,
   A. C. Hess, J. Jaffe, B. G. Johnson, J. Ju, R. Kobayashi, R. Kutteh, Z. Lin,
   R. Littlefield, X. Long, B. Meng, T. Nakajima, S. Niu, L. Pollack, M. Rosing,
   K. Glaesemann, G. Sandrone, M. Stave, H. Taylor, G. Thomas, J. H. van Lenthe,
                               A. T. Wong, Z. Zhang.

 Total times  cpu:     6518.1s     wall:     6613.0s
