export TMOUT=5400
export TMPDIR=/tmp
export PTMPDIR=/tmp/ptmp
 argument  1 = ALA_ALA_4.nw
                                         
                                         


             Northwest Computational Chemistry Package (NWChem) 7.2.0
             --------------------------------------------------------


                    Environmental Molecular Sciences Laboratory
                       Pacific Northwest National Laboratory
                                Richland, WA 99352

                              Copyright (c) 1994-2022
                       Pacific Northwest National Laboratory
                            Battelle Memorial Institute

             NWChem is an open-source computational chemistry package
                        distributed under the terms of the
                      Educational Community License (ECL) 2.0
             A copy of the license is included with this distribution
                              in the LICENSE.TXT file

                                  ACKNOWLEDGMENT
                                  --------------

            This software and its documentation were developed at the
            EMSL at Pacific Northwest National Laboratory, a multiprogram
            national laboratory, operated for the U.S. Department of Energy
            by Battelle under Contract Number DE-AC05-76RL01830. Support
            for this work was provided by the Department of Energy Office
            of Biological and Environmental Research, Office of Basic
            Energy Sciences, and the Office of Advanced Scientific Computing.


           Job information
           ---------------

    hostname        = nova18-24
    program         = /opt/rit/el9/20230413/app/linux-rhel9-x86_64_v3/gcc-11.2.1/nwchem-7.2.0-oxtctbuhfuzyfaoziquq6bki22grib3g/bin/nwchem
    date            = Tue Jun 24 13:50:23 2025

    compiled        = Wed_May_17_23:46:39_2023
    source          = /tmp/root/spack-stage/spack-stage-nwchem-7.2.0-oxtctbuhfuzyfaoziquq6bki22grib3g/spack-src
    nwchem branch   = 7.2.0
    nwchem revision = d0d141fd
    ga revision     = 5.8.0
    use scalapack   = T
    input           = ALA_ALA_4.nw
    prefix          = ALA_ALA_4.
    data base       = ./ALA_ALA_4.db
    status          = startup
    nproc           =        8
    time left       =     -1s



           Memory information
           ------------------

    heap     =   26214398 doubles =    200.0 Mbytes
    stack    =   26214395 doubles =    200.0 Mbytes
    global   =   52428800 doubles =    400.0 Mbytes (distinct from heap & stack)
    total    =  104857593 doubles =    800.0 Mbytes
    verify   = yes
    hardfail = no 


           Directory information
           ---------------------

  0 permanent = .
  0 scratch   = .




                                NWChem Input Module
                                -------------------



 Scaling coordinates for geometry "geometry" by  1.889725989
 (inverse scale =  0.529177249)

 C1  symmetry detected

          ------
          auto-z
          ------
  no constraints, skipping    0.0000000000000000     
  no constraints, skipping    0.0000000000000000     


                             Geometry "geometry" -> ""
                             -------------------------

 Output coordinates in angstroms (scale by  1.889725989 to convert to a.u.)

  No.       Tag          Charge          X              Y              Z
 ---- ---------------- ---------- -------------- -------------- --------------
    1 H                    1.0000     3.07783252    -3.27879836     0.26485788
    2 C                    6.0000     2.12241324    -3.23448354     0.78701227
    3 H                    1.0000     2.25581278    -2.73712278     1.74598350
    4 H                    1.0000     1.74647718    -4.24433321     0.93969077
    5 C                    6.0000     1.14108466    -2.45339088    -0.05371270
    6 O                    8.0000     1.48660830    -1.98354902    -1.12965696
    7 N                    7.0000    -0.08493094    -2.30034098     0.44394029
    8 H                    1.0000    -0.28200219    -2.71135383     1.34165425
    9 C                    6.0000    -1.18642883    -1.60198233    -0.23110903
   10 H                    1.0000    -1.17833850    -1.90033748    -1.28084031
   11 C                    6.0000    -2.50588022    -2.10115259     0.37866724
   12 H                    1.0000    -3.34762395    -1.65515376    -0.15409962
   13 H                    1.0000    -2.57187338    -3.18622028     0.29065579
   14 H                    1.0000    -2.56500275    -1.81675695     1.43081630
   15 C                    6.0000    -1.04515252    -0.05792204    -0.21581785
   16 O                    8.0000    -1.94407867     0.64668092     0.23820356
   17 N                    7.0000     0.10020236     0.45353804    -0.68371612
   18 H                    1.0000     0.76655811    -0.22751863    -1.03304952
   19 C                    6.0000     0.52494314     1.86307176    -0.76152970
   20 H                    1.0000     1.54084131     1.85096808    -1.16042117
   21 C                    6.0000    -0.33396418     2.59457666    -1.80235236
   22 H                    1.0000     0.06034200     3.59989235    -1.95702627
   23 H                    1.0000    -0.31040889     2.05688877    -2.75023731
   24 H                    1.0000    -1.36484922     2.66983679    -1.45440850
   25 C                    6.0000     0.63244777     2.64552803     0.57064256
   26 O                    8.0000     1.51561157     3.48057748     0.71733990
   27 N                    7.0000    -0.20293701     2.39434791     1.56829822
   28 H                    1.0000    -0.96803469     1.74975228     1.42028466
   29 H                    1.0000    -0.10797912     2.92229670     2.41858821

      Atomic Mass 
      ----------- 

      H                  1.007825
      C                 12.000000
      O                 15.994910
      N                 14.003070


 Effective nuclear repulsion energy (a.u.)     959.8374780489

            Nuclear Dipole moment (a.u.) 
            ----------------------------
        X                 Y               Z
 ---------------- ---------------- ----------------
     0.0000000000     0.0000000000     0.0000000000



                                Z-matrix (autoz)
                                -------- 

 Units are Angstrom for bonds and degrees for angles

      Type          Name      I     J     K     L     M      Value
      ----------- --------  ----- ----- ----- ----- ----- ----------
    1 Stretch                  1     2                       1.08969
    2 Stretch                  2     3                       1.08848
    3 Stretch                  2     4                       1.08832
    4 Stretch                  2     5                       1.50994
    5 Stretch                  5     6                       1.22384
    6 Stretch                  5     7                       1.33199
    7 Stretch                  7     8                       1.00681
    8 Stretch                  7     9                       1.46857
    9 Stretch                  9    10                       1.09134
   10 Stretch                  9    11                       1.53686
   11 Stretch                  9    15                       1.55059
   12 Stretch                 11    12                       1.09146
   13 Stretch                 11    13                       1.09063
   14 Stretch                 11    14                       1.09151
   15 Stretch                 15    16                       1.22909
   16 Stretch                 15    17                       1.33879
   17 Stretch                 17    18                       1.01484
   18 Stretch                 17    19                       1.47419
   19 Stretch                 19    20                       1.09147
   20 Stretch                 19    21                       1.53497
   21 Stretch                 19    25                       1.54870
   22 Stretch                 21    22                       1.09090
   23 Stretch                 21    23                       1.09002
   24 Stretch                 21    24                       1.09062
   25 Stretch                 25    26                       1.22426
   26 Stretch                 25    27                       1.32525
   27 Stretch                 27    28                       1.01133
   28 Stretch                 27    29                       1.00536
   29 Bend                     1     2     3               109.46859
   30 Bend                     1     2     4               109.41157
   31 Bend                     1     2     5               108.90881
   32 Bend                     2     5     6               120.30562
   33 Bend                     2     5     7               116.71905
   34 Bend                     3     2     4               110.04292
   35 Bend                     3     2     5               109.50107
   36 Bend                     4     2     5               109.48838
   37 Bend                     5     7     8               117.80031
   38 Bend                     5     7     9               124.97903
   39 Bend                     6     5     7               122.97121
   40 Bend                     7     9    10               107.85299
   41 Bend                     7     9    11               107.88515
   42 Bend                     7     9    15               113.61974
   43 Bend                     8     7     9               117.20494
   44 Bend                     9    11    12               109.61618
   45 Bend                     9    11    13               110.06419
   46 Bend                     9    11    14               110.14122
   47 Bend                     9    15    16               120.52169
   48 Bend                     9    15    17               117.06010
   49 Bend                    10     9    11               107.41016
   50 Bend                    10     9    15               106.32256
   51 Bend                    11     9    15               113.43703
   52 Bend                    12    11    13               108.69231
   53 Bend                    12    11    14               108.80080
   54 Bend                    13    11    14               109.49557
   55 Bend                    15    17    18               115.19274
   56 Bend                    15    17    19               129.06576
   57 Bend                    16    15    17               122.39784
   58 Bend                    17    19    20               106.07264
   59 Bend                    17    19    21               109.28273
   60 Bend                    17    19    25               117.23684
   61 Bend                    18    17    19               115.74149
   62 Bend                    19    21    22               109.45464
   63 Bend                    19    21    23               110.02826
   64 Bend                    19    21    24               110.21046
   65 Bend                    19    25    26               119.85199
   66 Bend                    19    25    27               120.53328
   67 Bend                    20    19    21               106.15819
   68 Bend                    20    19    25               104.79483
   69 Bend                    21    19    25               112.41659
   70 Bend                    22    21    23               108.87318
   71 Bend                    22    21    24               108.86229
   72 Bend                    23    21    24               109.38399
   73 Bend                    25    27    28               119.17726
   74 Bend                    25    27    29               118.53038
   75 Bend                    26    25    27               119.59123
   76 Bend                    28    27    29               122.00180
   77 Torsion                  1     2     5     6          -0.54996
   78 Torsion                  1     2     5     7        -179.83313
   79 Torsion                  2     5     7     8          -0.05311
   80 Torsion                  2     5     7     9        -178.56639
   81 Torsion                  3     2     5     6         119.12317
   82 Torsion                  3     2     5     7         -60.16000
   83 Torsion                  4     2     5     6        -120.14617
   84 Torsion                  4     2     5     7          60.57066
   85 Torsion                  5     7     9    10          42.67869
   86 Torsion                  5     7     9    11         158.41615
   87 Torsion                  5     7     9    15         -74.90914
   88 Torsion                  6     5     7     8        -179.31543
   89 Torsion                  6     5     7     9           2.17130
   90 Torsion                  7     9    11    12        -175.79687
   91 Torsion                  7     9    11    13         -56.29925
   92 Torsion                  7     9    11    14          64.52438
   93 Torsion                  7     9    15    16        -124.57476
   94 Torsion                  7     9    15    17          53.82262
   95 Torsion                  8     7     9    10        -135.84261
   96 Torsion                  8     7     9    11         -20.10515
   97 Torsion                  8     7     9    15         106.56956
   98 Torsion                  9    15    17    18           1.65320
   99 Torsion                  9    15    17    19        -178.36617
  100 Torsion                 10     9    11    12         -59.76934
  101 Torsion                 10     9    11    13          59.72828
  102 Torsion                 10     9    11    14        -179.44810
  103 Torsion                 10     9    15    16         116.95366
  104 Torsion                 10     9    15    17         -64.64895
  105 Torsion                 11     9    15    16          -0.87071
  106 Torsion                 11     9    15    17         177.52668
  107 Torsion                 12    11     9    15          57.42180
  108 Torsion                 13    11     9    15         176.91942
  109 Torsion                 14    11     9    15         -62.25695
  110 Torsion                 15    17    19    20         177.37607
  111 Torsion                 15    17    19    21         -68.56830
  112 Torsion                 15    17    19    25          60.81235
  113 Torsion                 16    15    17    18        -179.98186
  114 Torsion                 16    15    17    19          -0.00123
  115 Torsion                 17    19    21    22        -172.68517
  116 Torsion                 17    19    21    23         -53.08755
  117 Torsion                 17    19    21    24          67.61857
  118 Torsion                 17    19    25    26         144.25446
  119 Torsion                 17    19    25    27         -33.97499
  120 Torsion                 18    17    19    20          -2.64339
  121 Torsion                 18    17    19    21         111.41224
  122 Torsion                 18    17    19    25        -119.20710
  123 Torsion                 19    25    27    28          -5.86568
  124 Torsion                 19    25    27    29        -179.80069
  125 Torsion                 20    19    21    22         -58.68499
  126 Torsion                 20    19    21    23          60.91263
  127 Torsion                 20    19    21    24        -178.38125
  128 Torsion                 20    19    25    26          26.99570
  129 Torsion                 20    19    25    27        -151.23374
  130 Torsion                 21    19    25    26         -87.85850
  131 Torsion                 21    19    25    27          93.91206
  132 Torsion                 22    21    19    25          55.33851
  133 Torsion                 23    21    19    25         174.93613
  134 Torsion                 24    21    19    25         -64.35775
  135 Torsion                 26    25    27    28         175.90028
  136 Torsion                 26    25    27    29           1.96527


            XYZ format geometry
            -------------------
    29
 geometry
 H                     3.07783252    -3.27879836     0.26485788
 C                     2.12241324    -3.23448354     0.78701227
 H                     2.25581278    -2.73712278     1.74598350
 H                     1.74647718    -4.24433321     0.93969077
 C                     1.14108466    -2.45339088    -0.05371270
 O                     1.48660830    -1.98354902    -1.12965696
 N                    -0.08493094    -2.30034098     0.44394029
 H                    -0.28200219    -2.71135383     1.34165425
 C                    -1.18642883    -1.60198233    -0.23110903
 H                    -1.17833850    -1.90033748    -1.28084031
 C                    -2.50588022    -2.10115259     0.37866724
 H                    -3.34762395    -1.65515376    -0.15409962
 H                    -2.57187338    -3.18622028     0.29065579
 H                    -2.56500275    -1.81675695     1.43081630
 C                    -1.04515252    -0.05792204    -0.21581785
 O                    -1.94407867     0.64668092     0.23820356
 N                     0.10020236     0.45353804    -0.68371612
 H                     0.76655811    -0.22751863    -1.03304952
 C                     0.52494314     1.86307176    -0.76152970
 H                     1.54084131     1.85096808    -1.16042117
 C                    -0.33396418     2.59457666    -1.80235236
 H                     0.06034200     3.59989235    -1.95702627
 H                    -0.31040889     2.05688877    -2.75023731
 H                    -1.36484922     2.66983679    -1.45440850
 C                     0.63244777     2.64552803     0.57064256
 O                     1.51561157     3.48057748     0.71733990
 N                    -0.20293701     2.39434791     1.56829822
 H                    -0.96803469     1.74975228     1.42028466
 H                    -0.10797912     2.92229670     2.41858821

 ==============================================================================
                                internuclear distances
 ------------------------------------------------------------------------------
       center one      |      center two      | atomic units |  angstroms
 ------------------------------------------------------------------------------
    2 C                |   1 H                |     2.05922  |     1.08969
    3 H                |   2 C                |     2.05693  |     1.08848
    4 H                |   2 C                |     2.05662  |     1.08832
    5 C                |   2 C                |     2.85338  |     1.50994
    6 O                |   5 C                |     2.31273  |     1.22384
    7 N                |   5 C                |     2.51710  |     1.33199
    8 H                |   7 N                |     1.90259  |     1.00681
    9 C                |   7 N                |     2.77519  |     1.46857
   10 H                |   9 C                |     2.06233  |     1.09134
   11 C                |   9 C                |     2.90425  |     1.53686
   12 H                |  11 C                |     2.06256  |     1.09146
   13 H                |  11 C                |     2.06099  |     1.09063
   14 H                |  11 C                |     2.06265  |     1.09151
   15 C                |   9 C                |     2.93018  |     1.55059
   16 O                |  15 C                |     2.32265  |     1.22909
   17 N                |  15 C                |     2.52995  |     1.33879
   18 H                |  17 N                |     1.91777  |     1.01484
   19 C                |  17 N                |     2.78582  |     1.47419
   20 H                |  19 C                |     2.06258  |     1.09147
   21 C                |  19 C                |     2.90067  |     1.53497
   22 H                |  21 C                |     2.06150  |     1.09090
   23 H                |  21 C                |     2.05984  |     1.09002
   24 H                |  21 C                |     2.06097  |     1.09062
   25 C                |  19 C                |     2.92662  |     1.54870
   26 O                |  25 C                |     2.31351  |     1.22426
   27 N                |  25 C                |     2.50435  |     1.32525
   28 H                |  27 N                |     1.91113  |     1.01133
   29 H                |  27 N                |     1.89985  |     1.00536
 ------------------------------------------------------------------------------
                         number of included internuclear distances:         28
 ==============================================================================



 ==============================================================================
                                 internuclear angles
 ------------------------------------------------------------------------------
        center 1       |       center 2       |       center 3       |  degrees
 ------------------------------------------------------------------------------
    1 H                |   2 C                |   3 H                |   109.47
    1 H                |   2 C                |   4 H                |   109.41
    1 H                |   2 C                |   5 C                |   108.91
    3 H                |   2 C                |   4 H                |   110.04
    3 H                |   2 C                |   5 C                |   109.50
    4 H                |   2 C                |   5 C                |   109.49
    2 C                |   5 C                |   6 O                |   120.31
    2 C                |   5 C                |   7 N                |   116.72
    6 O                |   5 C                |   7 N                |   122.97
    5 C                |   7 N                |   8 H                |   117.80
    5 C                |   7 N                |   9 C                |   124.98
    8 H                |   7 N                |   9 C                |   117.20
    7 N                |   9 C                |  10 H                |   107.85
    7 N                |   9 C                |  11 C                |   107.89
    7 N                |   9 C                |  15 C                |   113.62
   10 H                |   9 C                |  11 C                |   107.41
   10 H                |   9 C                |  15 C                |   106.32
   11 C                |   9 C                |  15 C                |   113.44
    9 C                |  11 C                |  12 H                |   109.62
    9 C                |  11 C                |  13 H                |   110.06
    9 C                |  11 C                |  14 H                |   110.14
   12 H                |  11 C                |  13 H                |   108.69
   12 H                |  11 C                |  14 H                |   108.80
   13 H                |  11 C                |  14 H                |   109.50
    9 C                |  15 C                |  16 O                |   120.52
    9 C                |  15 C                |  17 N                |   117.06
   16 O                |  15 C                |  17 N                |   122.40
   15 C                |  17 N                |  18 H                |   115.19
   15 C                |  17 N                |  19 C                |   129.07
   18 H                |  17 N                |  19 C                |   115.74
   17 N                |  19 C                |  20 H                |   106.07
   17 N                |  19 C                |  21 C                |   109.28
   17 N                |  19 C                |  25 C                |   117.24
   20 H                |  19 C                |  21 C                |   106.16
   20 H                |  19 C                |  25 C                |   104.79
   21 C                |  19 C                |  25 C                |   112.42
   19 C                |  21 C                |  22 H                |   109.45
   19 C                |  21 C                |  23 H                |   110.03
   19 C                |  21 C                |  24 H                |   110.21
   22 H                |  21 C                |  23 H                |   108.87
   22 H                |  21 C                |  24 H                |   108.86
   23 H                |  21 C                |  24 H                |   109.38
   19 C                |  25 C                |  26 O                |   119.85
   19 C                |  25 C                |  27 N                |   120.53
   26 O                |  25 C                |  27 N                |   119.59
   25 C                |  27 N                |  28 H                |   119.18
   25 C                |  27 N                |  29 H                |   118.53
   28 H                |  27 N                |  29 H                |   122.00
 ------------------------------------------------------------------------------
                            number of included internuclear angles:         48
 ==============================================================================



  library name resolved from: environment
  library file name is: </opt/rit/el9/20230413/app/linux-rhel9-x86_64_v3/gcc-11.2.1/nwchem-7.2.0-oxtctbuhfuzyfaoziquq6bki22grib3g/share/nwchem/libraries/>
  


 Summary of "ao basis" -> "" (cartesian)
 ------------------------------------------------------------------------------
       Tag                 Description            Shells   Functions and Types
 ---------------- ------------------------------  ------  ---------------------
 *                        aug-cc-pvdz                 on all atoms 


                      Basis "ao basis" -> "ao basis" (cartesian)
                      -----
  H (Hydrogen)
  ------------
            Exponent  Coefficients 
       -------------- ---------------------------------------------------------
  1 S  1.30100000E+01  0.019685
  1 S  1.96200000E+00  0.137977
  1 S  4.44600000E-01  0.478148

  2 S  1.22000000E-01  1.000000

  3 S  2.97400000E-02  1.000000

  4 P  7.27000000E-01  1.000000

  5 P  1.41000000E-01  1.000000

  C (Carbon)
  ----------
            Exponent  Coefficients 
       -------------- ---------------------------------------------------------
  1 S  6.66500000E+03  0.000692
  1 S  1.00000000E+03  0.005329
  1 S  2.28000000E+02  0.027077
  1 S  6.47100000E+01  0.101718
  1 S  2.10600000E+01  0.274740
  1 S  7.49500000E+00  0.448564
  1 S  2.79700000E+00  0.285074
  1 S  5.21500000E-01  0.015204

  2 S  6.66500000E+03 -0.000146
  2 S  1.00000000E+03 -0.001154
  2 S  2.28000000E+02 -0.005725
  2 S  6.47100000E+01 -0.023312
  2 S  2.10600000E+01 -0.063955
  2 S  7.49500000E+00 -0.149981
  2 S  2.79700000E+00 -0.127262
  2 S  5.21500000E-01  0.544529

  3 S  1.59600000E-01  1.000000

  4 S  4.69000000E-02  1.000000

  5 P  9.43900000E+00  0.038109
  5 P  2.00200000E+00  0.209480
  5 P  5.45600000E-01  0.508557

  6 P  1.51700000E-01  1.000000

  7 P  4.04100000E-02  1.000000

  8 D  5.50000000E-01  1.000000

  9 D  1.51000000E-01  1.000000

  O (Oxygen)
  ----------
            Exponent  Coefficients 
       -------------- ---------------------------------------------------------
  1 S  1.17200000E+04  0.000710
  1 S  1.75900000E+03  0.005470
  1 S  4.00800000E+02  0.027837
  1 S  1.13700000E+02  0.104800
  1 S  3.70300000E+01  0.283062
  1 S  1.32700000E+01  0.448719
  1 S  5.02500000E+00  0.270952
  1 S  1.01300000E+00  0.015458

  2 S  1.17200000E+04 -0.000160
  2 S  1.75900000E+03 -0.001263
  2 S  4.00800000E+02 -0.006267
  2 S  1.13700000E+02 -0.025716
  2 S  3.70300000E+01 -0.070924
  2 S  1.32700000E+01 -0.165411
  2 S  5.02500000E+00 -0.116955
  2 S  1.01300000E+00  0.557368

  3 S  3.02300000E-01  1.000000

  4 S  7.89600000E-02  1.000000

  5 P  1.77000000E+01  0.043018
  5 P  3.85400000E+00  0.228913
  5 P  1.04600000E+00  0.508728

  6 P  2.75300000E-01  1.000000

  7 P  6.85600000E-02  1.000000

  8 D  1.18500000E+00  1.000000

  9 D  3.32000000E-01  1.000000

  N (Nitrogen)
  ------------
            Exponent  Coefficients 
       -------------- ---------------------------------------------------------
  1 S  9.04600000E+03  0.000700
  1 S  1.35700000E+03  0.005389
  1 S  3.09300000E+02  0.027406
  1 S  8.77300000E+01  0.103207
  1 S  2.85600000E+01  0.278723
  1 S  1.02100000E+01  0.448540
  1 S  3.83800000E+00  0.278238
  1 S  7.46600000E-01  0.015440

  2 S  9.04600000E+03 -0.000153
  2 S  1.35700000E+03 -0.001208
  2 S  3.09300000E+02 -0.005992
  2 S  8.77300000E+01 -0.024544
  2 S  2.85600000E+01 -0.067459
  2 S  1.02100000E+01 -0.158078
  2 S  3.83800000E+00 -0.121831
  2 S  7.46600000E-01  0.549003

  3 S  2.24800000E-01  1.000000

  4 S  6.12400000E-02  1.000000

  5 P  1.35500000E+01  0.039919
  5 P  2.91700000E+00  0.217169
  5 P  7.97300000E-01  0.510319

  6 P  2.18500000E-01  1.000000

  7 P  5.61100000E-02  1.000000

  8 D  8.17000000E-01  1.000000

  9 D  2.30000000E-01  1.000000



 Summary of "ao basis" -> "ao basis" (cartesian)
 ------------------------------------------------------------------------------
       Tag                 Description            Shells   Functions and Types
 ---------------- ------------------------------  ------  ---------------------
 H                        aug-cc-pvdz                5        9   3s2p
 C                        aug-cc-pvdz                9       25   4s3p2d
 O                        aug-cc-pvdz                9       25   4s3p2d
 N                        aug-cc-pvdz                9       25   4s3p2d


                                 NWChem SCF Module
                                 -----------------



  ao basis        = "ao basis"
  functions       =   485
  atoms           =    29
  closed shells   =    54
  open shells     =     0
  charge          =   0.00
  wavefunction    = RHF 
  input vectors   = atomic
  output vectors  = ./ALA_ALA_4.movecs
  use symmetry    = F
  symmetry adapt  = F


 Summary of "ao basis" -> "ao basis" (cartesian)
 ------------------------------------------------------------------------------
       Tag                 Description            Shells   Functions and Types
 ---------------- ------------------------------  ------  ---------------------
 H                        aug-cc-pvdz                5        9   3s2p
 C                        aug-cc-pvdz                9       25   4s3p2d
 O                        aug-cc-pvdz                9       25   4s3p2d
 N                        aug-cc-pvdz                9       25   4s3p2d



 Forming initial guess at       0.7s


 !! The overlap matrix has   3 vectors deemed linearly dependent with
    eigenvalues:
 3.88D-06 6.49D-06 9.89D-06


      Superposition of Atomic Density Guess
      -------------------------------------

 Sum of atomic energies:        -696.03477360

      Non-variational initial energy
      ------------------------------

 Total energy =    -705.013114
 1-e energy   =   -2851.659794
 2-e energy   =    1186.809202
 HOMO         =      -0.307067
 LUMO         =       0.003100


 Starting SCF solution at     118.0s



 ----------------------------------------------
         Quadratically convergent ROHF

 Convergence threshold     :          1.000E-04
 Maximum no. of iterations :           30
 Final Fock-matrix accuracy:          1.000E-10
 ----------------------------------------------


              iter       energy          gnorm     gmax       time
             ----- ------------------- --------- --------- --------
                 1     -699.4447720407  2.32D+00  1.57D-01    225.5
                 2     -699.7266877562  7.64D-01  4.01D-02    483.4
                 3     -699.7780413942  6.03D-02  4.05D-03    849.5
                 4     -699.7786101937  1.70D-03  9.80D-05   1501.9
                 5     -699.7786105625  4.54D-06  3.82D-07   2349.6


       Final RHF  results 
       ------------------ 

         Total SCF energy =   -699.778610562524
      One-electron energy =  -2861.705637182404
      Two-electron energy =   1202.089548571012
 Nuclear repulsion energy =    959.837478048867

        Time for solution =   2233.8s


             Final eigenvalues
             -----------------

              1      
    1  -20.5508
    2  -20.5426
    3  -20.5101
    4  -15.6248
    5  -15.5976
    6  -15.5723
    7  -11.3802
    8  -11.3732
    9  -11.3462
   10  -11.3154
   11  -11.2951
   12  -11.2609
   13  -11.2527
   14  -11.2278
   15   -1.4172
   16   -1.4026
   17   -1.3729
   18   -1.2724
   19   -1.2447
   20   -1.2016
   21   -1.0795
   22   -1.0391
   23   -1.0104
   24   -0.9182
   25   -0.8822
   26   -0.8338
   27   -0.8147
   28   -0.7648
   29   -0.7487
   30   -0.7289
   31   -0.7017
   32   -0.6928
   33   -0.6757
   34   -0.6394
   35   -0.6249
   36   -0.6184
   37   -0.6086
   38   -0.5975
   39   -0.5915
   40   -0.5888
   41   -0.5675
   42   -0.5630
   43   -0.5523
   44   -0.5455
   45   -0.5308
   46   -0.5256
   47   -0.5245
   48   -0.5066
   49   -0.4602
   50   -0.4451
   51   -0.4278
   52   -0.4113
   53   -0.3948
   54   -0.3877
   55    0.0206
   56    0.0358
   57    0.0385
   58    0.0414
   59    0.0529
   60    0.0557
   61    0.0580
   62    0.0593
   63    0.0648
   64    0.0751

                       ROHF Final Molecular Orbital Analysis
                       -------------------------------------

 Vector   15  Occ=2.000000D+00  E=-1.417158D+00
              MO Center=  9.6D-01, -1.9D+00, -5.8D-01, r^2= 2.0D+00
   Bfn.  Coefficient  Atom+Function         Bfn.  Coefficient  Atom+Function  
  ----- ------------  ---------------      ----- ------------  ---------------
    80      0.338536   6 O  s                79      0.332323   6 O  s         
    54      0.233033   5 C  s                12      0.182362   2 C  s         

 Vector   16  Occ=2.000000D+00  E=-1.402556D+00
              MO Center= -1.2D+00,  2.4D-01, -2.3D-02, r^2= 2.3D+00
   Bfn.  Coefficient  Atom+Function         Bfn.  Coefficient  Atom+Function  
  ----- ------------  ---------------      ----- ------------  ---------------
   250      0.361982  16 O  s               249      0.340607  16 O  s         
   224      0.226393  15 C  s         

 Vector   17  Occ=2.000000D+00  E=-1.372864D+00
              MO Center=  1.0D+00,  3.1D+00,  7.3D-01, r^2= 1.1D+00
   Bfn.  Coefficient  Atom+Function         Bfn.  Coefficient  Atom+Function  
  ----- ------------  ---------------      ----- ------------  ---------------
   420      0.374900  26 O  s               419      0.350548  26 O  s         
   394      0.245752  25 C  s         

 Vector   18  Occ=2.000000D+00  E=-1.272380D+00
              MO Center=  6.9D-02, -2.1D+00,  1.4D-01, r^2= 1.9D+00
   Bfn.  Coefficient  Atom+Function         Bfn.  Coefficient  Atom+Function  
  ----- ------------  ---------------      ----- ------------  ---------------
   105      0.406413   7 N  s               104      0.339539   7 N  s         
    80     -0.215475   6 O  s                79     -0.181218   6 O  s         
   128      0.156204   8 H  s         

 Vector   19  Occ=2.000000D+00  E=-1.244658D+00
              MO Center= -1.2D-01,  5.1D-01, -4.9D-01, r^2= 2.1D+00
   Bfn.  Coefficient  Atom+Function         Bfn.  Coefficient  Atom+Function  
  ----- ------------  ---------------      ----- ------------  ---------------
   275      0.393140  17 N  s               274      0.342838  17 N  s         
   250     -0.198887  16 O  s               227      0.170245  15 C  px        
   249     -0.157505  16 O  s               298      0.151187  18 H  s         

 Vector   20  Occ=2.000000D+00  E=-1.201617D+00
              MO Center=  8.2D-02,  2.5D+00,  1.3D+00, r^2= 1.5D+00
   Bfn.  Coefficient  Atom+Function         Bfn.  Coefficient  Atom+Function  
  ----- ------------  ---------------      ----- ------------  ---------------
   445      0.381502  27 N  s               444      0.369048  27 N  s         
   420     -0.216128  26 O  s               419     -0.178008  26 O  s         
   309     -0.176760  19 C  s               397     -0.166187  25 C  px        
   468      0.164464  28 H  s               477      0.158400  29 H  s         

 Vector   21  Occ=2.000000D+00  E=-1.079485D+00
              MO Center= -5.2D-01, -1.6D+00,  2.7D-02, r^2= 5.4D+00
   Bfn.  Coefficient  Atom+Function         Bfn.  Coefficient  Atom+Function  
  ----- ------------  ---------------      ----- ------------  ---------------
   138      0.237879   9 C  s               172      0.184629  11 C  s         
   144     -0.165760   9 C  px              225      0.155077  15 C  s         

 Vector   22  Occ=2.000000D+00  E=-1.039090D+00
              MO Center=  2.4D-02,  1.3D+00, -7.9D-01, r^2= 5.6D+00
   Bfn.  Coefficient  Atom+Function         Bfn.  Coefficient  Atom+Function  
  ----- ------------  ---------------      ----- ------------  ---------------
   308      0.243446  19 C  s               342      0.227514  21 C  s         

 Vector   23  Occ=2.000000D+00  E=-1.010399D+00
              MO Center=  8.2D-01, -2.7D+00,  5.2D-01, r^2= 5.2D+00
   Bfn.  Coefficient  Atom+Function         Bfn.  Coefficient  Atom+Function  
  ----- ------------  ---------------      ----- ------------  ---------------
    11      0.309860   2 C  s               144     -0.189555   9 C  px        
   174      0.181212  11 C  s               172      0.175787  11 C  s         
    55      0.155859   5 C  s         

 Vector   24  Occ=2.000000D+00  E=-9.182057D-01
              MO Center= -1.0D+00, -1.3D-01, -4.9D-01, r^2= 7.5D+00
   Bfn.  Coefficient  Atom+Function         Bfn.  Coefficient  Atom+Function  
  ----- ------------  ---------------      ----- ------------  ---------------
   139      0.249842   9 C  s               145      0.210200   9 C  py        
   172     -0.206167  11 C  s               342      0.204489  21 C  s         
   316     -0.175499  19 C  pz              173     -0.168879  11 C  s         

 Vector   25  Occ=2.000000D+00  E=-8.821546D-01
              MO Center= -4.2D-01,  8.4D-01, -3.9D-01, r^2= 8.3D+00
   Bfn.  Coefficient  Atom+Function         Bfn.  Coefficient  Atom+Function  
  ----- ------------  ---------------      ----- ------------  ---------------
   316      0.271401  19 C  pz              342     -0.198609  21 C  s         
   309      0.193061  19 C  s               139      0.173361   9 C  s         
   308      0.151944  19 C  s         

 Vector   26  Occ=2.000000D+00  E=-8.337647D-01
              MO Center=  1.4D-01, -1.5D+00,  2.7D-01, r^2= 5.7D+00
   Bfn.  Coefficient  Atom+Function         Bfn.  Coefficient  Atom+Function  
  ----- ------------  ---------------      ----- ------------  ---------------
   107      0.273384   7 N  px              139      0.227200   9 C  s         
   309      0.213518  19 C  s               128     -0.206131   8 H  s         
    54      0.201633   5 C  s               105     -0.165583   7 N  s         
   109     -0.163093   7 N  pz               80     -0.158492   6 O  s         
    60     -0.150267   5 C  px        

 Vector   27  Occ=2.000000D+00  E=-8.146760D-01
              MO Center= -9.9D-02,  1.4D-01,  1.4D-01, r^2= 6.1D+00
   Bfn.  Coefficient  Atom+Function         Bfn.  Coefficient  Atom+Function  
  ----- ------------  ---------------      ----- ------------  ---------------
   309      0.280824  19 C  s               277     -0.211627  17 N  px        
   128      0.191013   8 H  s               109      0.181039   7 N  pz        
   449     -0.152781  27 N  pz              225      0.150689  15 C  s         

 Vector   28  Occ=2.000000D+00  E=-7.648414D-01
              MO Center=  4.1D-02,  1.5D+00,  3.8D-01, r^2= 4.7D+00
   Bfn.  Coefficient  Atom+Function         Bfn.  Coefficient  Atom+Function  
  ----- ------------  ---------------      ----- ------------  ---------------
   396     -0.239737  25 C  s               447      0.224708  27 N  px        
   298      0.219234  18 H  s               395      0.198864  25 C  s         
   468     -0.196939  28 H  s               277      0.176789  17 N  px        
   449     -0.177496  27 N  pz              399      0.173410  25 C  pz        

 Vector   29  Occ=2.000000D+00  E=-7.486889D-01
              MO Center= -5.4D-01, -4.4D-01,  1.2D-01, r^2= 5.9D+00
   Bfn.  Coefficient  Atom+Function         Bfn.  Coefficient  Atom+Function  
  ----- ------------  ---------------      ----- ------------  ---------------
   145      0.338190   9 C  py              139      0.221710   9 C  s         
   142      0.218950   9 C  py              225     -0.208452  15 C  s         
   109      0.205007   7 N  pz              253     -0.185413  16 O  py        
   228     -0.167782  15 C  py               55     -0.152951   5 C  s         

 Vector   30  Occ=2.000000D+00  E=-7.289220D-01
              MO Center= -7.1D-02,  1.1D+00,  3.6D-01, r^2= 5.7D+00
   Bfn.  Coefficient  Atom+Function         Bfn.  Coefficient  Atom+Function  
  ----- ------------  ---------------      ----- ------------  ---------------
   468      0.233682  28 H  s               278     -0.210496  17 N  py        
   447     -0.194537  27 N  px              448     -0.190561  27 N  py        
   315      0.185579  19 C  py              469      0.161001  28 H  s         
   399     -0.157670  25 C  pz              298      0.150467  18 H  s         
   477     -0.150017  29 H  s         

 Vector   31  Occ=2.000000D+00  E=-7.016664D-01
              MO Center=  7.7D-01, -1.3D+00,  2.5D-01, r^2= 8.4D+00
   Bfn.  Coefficient  Atom+Function         Bfn.  Coefficient  Atom+Function  
  ----- ------------  ---------------      ----- ------------  ---------------
    57      0.224905   5 C  px              225     -0.192292  15 C  s         
    84      0.177189   6 O  pz               55     -0.166386   5 C  s         
    16     -0.155613   2 C  pz               80     -0.156240   6 O  s         
   477     -0.155381  29 H  s         

 Vector   32  Occ=2.000000D+00  E=-6.927720D-01
              MO Center= -1.7D-01, -1.7D+00, -2.5D-01, r^2= 4.4D+00
   Bfn.  Coefficient  Atom+Function         Bfn.  Coefficient  Atom+Function  
  ----- ------------  ---------------      ----- ------------  ---------------
    84      0.230196   6 O  pz              143      0.230447   9 C  pz        
   144      0.214029   9 C  px              108      0.212083   7 N  py        
   162     -0.204894  10 H  s                80     -0.183413   6 O  s         

 Vector   33  Occ=2.000000D+00  E=-6.757266D-01
              MO Center=  3.7D-02,  9.7D-01,  2.0D-01, r^2= 7.4D+00
   Bfn.  Coefficient  Atom+Function         Bfn.  Coefficient  Atom+Function  
  ----- ------------  ---------------      ----- ------------  ---------------
   139      0.254163   9 C  s               315     -0.246808  19 C  py        
   278      0.203153  17 N  py              145      0.180192   9 C  py        
   250     -0.167607  16 O  s               449     -0.166972  27 N  pz        
   477     -0.166477  29 H  s               312     -0.163227  19 C  py        
   420      0.162914  26 O  s         

 Vector   34  Occ=2.000000D+00  E=-6.393834D-01
              MO Center=  8.5D-01, -1.8D+00,  2.6D-01, r^2= 7.2D+00
   Bfn.  Coefficient  Atom+Function         Bfn.  Coefficient  Atom+Function  
  ----- ------------  ---------------      ----- ------------  ---------------
   139      0.314032   9 C  s                15      0.236606   2 C  py        
   225     -0.214611  15 C  s                44     -0.194214   4 H  s         
    35      0.192027   3 H  s                83      0.156251   6 O  py        

 Vector   35  Occ=2.000000D+00  E=-6.248822D-01
              MO Center= -7.8D-01, -4.6D-01,  6.0D-02, r^2= 8.0D+00
   Bfn.  Coefficient  Atom+Function         Bfn.  Coefficient  Atom+Function  
  ----- ------------  ---------------      ----- ------------  ---------------
   252      0.270499  16 O  px              145     -0.199218   9 C  py        
   228      0.185925  15 C  py              243      0.158922  15 C  dxy       
   250     -0.158279  16 O  s               255      0.155056  16 O  px        

 Vector   36  Occ=2.000000D+00  E=-6.183659D-01
              MO Center=  1.2D-01,  1.6D+00, -3.7D-01, r^2= 6.0D+00
   Bfn.  Coefficient  Atom+Function         Bfn.  Coefficient  Atom+Function  
  ----- ------------  ---------------      ----- ------------  ---------------
   309      0.283766  19 C  s               313     -0.211144  19 C  pz        
   343     -0.190071  21 C  s               332      0.187441  20 H  s         
   345      0.180316  21 C  px              384     -0.169057  24 H  s         
   402      0.164487  25 C  pz              449     -0.163124  27 N  pz        

 Vector   37  Occ=2.000000D+00  E=-6.085835D-01
              MO Center=  6.2D-01, -1.0D+00, -3.3D-01, r^2= 7.4D+00
   Bfn.  Coefficient  Atom+Function         Bfn.  Coefficient  Atom+Function  
  ----- ------------  ---------------      ----- ------------  ---------------
    84     -0.247807   6 O  pz               59      0.244755   5 C  pz        
    82      0.194079   6 O  px               80      0.176577   6 O  s         
    14     -0.152255   2 C  px        

 Vector   38  Occ=2.000000D+00  E=-5.975491D-01
              MO Center=  3.7D-01,  1.1D+00, -1.7D-01, r^2= 9.5D+00
   Bfn.  Coefficient  Atom+Function         Bfn.  Coefficient  Atom+Function  
  ----- ------------  ---------------      ----- ------------  ---------------
   423      0.238273  26 O  py              397     -0.196928  25 C  px        
   347      0.192288  21 C  pz              375     -0.175035  23 H  s         
   315      0.157443  19 C  py              420      0.150329  26 O  s         

 Vector   39  Occ=2.000000D+00  E=-5.914811D-01
              MO Center=  6.6D-01,  1.3D+00,  1.7D-01, r^2= 9.3D+00
   Bfn.  Coefficient  Atom+Function         Bfn.  Coefficient  Atom+Function  
  ----- ------------  ---------------      ----- ------------  ---------------
   422      0.241990  26 O  px              420      0.190919  26 O  s         
   398     -0.189132  25 C  py              423      0.182141  26 O  py        
   279      0.169100  17 N  pz              346      0.152245  21 C  py        

 Vector   40  Occ=2.000000D+00  E=-5.888131D-01
              MO Center=  7.2D-01, -1.9D+00,  3.7D-01, r^2= 1.0D+01
   Bfn.  Coefficient  Atom+Function         Bfn.  Coefficient  Atom+Function  
  ----- ------------  ---------------      ----- ------------  ---------------
     1      0.284958   1 H  s                14      0.238789   2 C  px        
     2      0.228627   1 H  s                16     -0.210674   2 C  pz        
   196      0.192866  12 H  s               175     -0.177733  11 C  px        
   226      0.172050  15 C  s               197      0.167358  12 H  s         

 Vector   41  Occ=2.000000D+00  E=-5.674784D-01
              MO Center= -6.2D-01,  1.0D+00,  1.2D-01, r^2= 8.4D+00
   Bfn.  Coefficient  Atom+Function         Bfn.  Coefficient  Atom+Function  
  ----- ------------  ---------------      ----- ------------  ---------------
   197      0.226607  12 H  s               422     -0.222627  26 O  px        
   276      0.221338  17 N  s               398      0.212149  25 C  py        
   174     -0.205326  11 C  s               177     -0.184460  11 C  pz        
   385     -0.175594  24 H  s               254      0.161332  16 O  pz        
   345      0.151062  21 C  px        

 Vector   42  Occ=2.000000D+00  E=-5.629990D-01
              MO Center= -7.3D-01, -1.9D+00,  2.0D-01, r^2= 8.7D+00
   Bfn.  Coefficient  Atom+Function         Bfn.  Coefficient  Atom+Function  
  ----- ------------  ---------------      ----- ------------  ---------------
   176      0.240696  11 C  py              205     -0.241082  13 H  s         
   206     -0.208638  13 H  s               214      0.176456  14 H  s         
   225      0.176025  15 C  s                44     -0.170215   4 H  s         
   215      0.170883  14 H  s               108     -0.151119   7 N  py        

 Vector   43  Occ=2.000000D+00  E=-5.522736D-01
              MO Center= -1.0D+00, -1.6D+00,  1.9D-01, r^2= 7.3D+00
   Bfn.  Coefficient  Atom+Function         Bfn.  Coefficient  Atom+Function  
  ----- ------------  ---------------      ----- ------------  ---------------
   197      0.261720  12 H  s               176      0.235288  11 C  py        
   196      0.221729  12 H  s               205     -0.207717  13 H  s         
   254     -0.203933  16 O  pz              206     -0.188468  13 H  s         
    12      0.186639   2 C  s                55     -0.185159   5 C  s         
    14     -0.167293   2 C  px        

 Vector   44  Occ=2.000000D+00  E=-5.455259D-01
              MO Center=  1.5D-01, -2.1D+00,  1.4D-01, r^2= 6.5D+00
   Bfn.  Coefficient  Atom+Function         Bfn.  Coefficient  Atom+Function  
  ----- ------------  ---------------      ----- ------------  ---------------
    83      0.237802   6 O  py              175      0.237038  11 C  px        
   141     -0.210616   9 C  px               35     -0.193403   3 H  s         
    86      0.184626   6 O  py               15     -0.167779   2 C  py        
    58      0.155092   5 C  py              196     -0.151746  12 H  s         
    45      0.150651   4 H  s         

 Vector   45  Occ=2.000000D+00  E=-5.308405D-01
              MO Center= -7.6D-01,  1.3D-02, -4.9D-01, r^2= 9.4D+00
   Bfn.  Coefficient  Atom+Function         Bfn.  Coefficient  Atom+Function  
  ----- ------------  ---------------      ----- ------------  ---------------
   178      0.220146  11 C  px              143      0.215711   9 C  pz        
   177     -0.213982  11 C  pz              346     -0.212315  21 C  py        
   376      0.207014  23 H  s               173      0.194933  11 C  s         
   214     -0.195565  14 H  s               162     -0.191215  10 H  s         
   366     -0.183437  22 H  s               375      0.175324  23 H  s         

 Vector   46  Occ=2.000000D+00  E=-5.255755D-01
              MO Center= -5.8D-01,  8.8D-01, -4.8D-01, r^2= 8.8D+00
   Bfn.  Coefficient  Atom+Function         Bfn.  Coefficient  Atom+Function  
  ----- ------------  ---------------      ----- ------------  ---------------
   376      0.237185  23 H  s               375      0.221981  23 H  s         
   143     -0.176185   9 C  pz              346     -0.176307  21 C  py        
   162      0.173699  10 H  s               367     -0.171574  22 H  s         
   178     -0.167947  11 C  px              347     -0.168621  21 C  pz        
   206     -0.162097  13 H  s               214      0.157892  14 H  s         

 Vector   47  Occ=2.000000D+00  E=-5.245125D-01
              MO Center= -4.0D-01,  1.7D+00, -8.1D-01, r^2= 5.8D+00
   Bfn.  Coefficient  Atom+Function         Bfn.  Coefficient  Atom+Function  
  ----- ------------  ---------------      ----- ------------  ---------------
   385      0.269381  24 H  s               347      0.229807  21 C  pz        
   384      0.199032  24 H  s               366     -0.191341  22 H  s         
   252      0.189066  16 O  px              343     -0.160023  21 C  s         

 Vector   48  Occ=2.000000D+00  E=-5.066032D-01
              MO Center= -1.1D-02,  1.9D+00, -6.1D-01, r^2= 4.5D+00
   Bfn.  Coefficient  Atom+Function         Bfn.  Coefficient  Atom+Function  
  ----- ------------  ---------------      ----- ------------  ---------------
   311      0.282346  19 C  px              345     -0.257112  21 C  px        
   332      0.242231  20 H  s               333      0.235288  20 H  s         
   384      0.219465  24 H  s               376     -0.164897  23 H  s         
   385      0.154282  24 H  s         

 Vector   49  Occ=2.000000D+00  E=-4.602461D-01
              MO Center= -9.7D-02, -8.8D-01, -2.9D-01, r^2= 6.0D+00
   Bfn.  Coefficient  Atom+Function         Bfn.  Coefficient  Atom+Function  
  ----- ------------  ---------------      ----- ------------  ---------------
    82      0.288195   6 O  px              253     -0.287718  16 O  py        
   256     -0.240919  16 O  py               85      0.227998   6 O  px        
   139     -0.198825   9 C  s               252     -0.191139  16 O  px        
   108     -0.181905   7 N  py              111     -0.168473   7 N  py        
    84      0.163894   6 O  pz        

 Vector   50  Occ=2.000000D+00  E=-4.451252D-01
              MO Center=  9.9D-01, -1.7D+00, -4.9D-01, r^2= 4.4D+00
   Bfn.  Coefficient  Atom+Function         Bfn.  Coefficient  Atom+Function  
  ----- ------------  ---------------      ----- ------------  ---------------
    82      0.395207   6 O  px               85      0.323849   6 O  px        
    83     -0.292872   6 O  py               86     -0.237428   6 O  py        
   276      0.227118  17 N  s               226     -0.215873  15 C  s         
   105      0.192929   7 N  s               140     -0.180834   9 C  s         
    13      0.179580   2 C  s               107      0.176832   7 N  px        

 Vector   51  Occ=2.000000D+00  E=-4.277575D-01
              MO Center=  3.7D-01,  1.9D+00,  1.5D-01, r^2= 5.8D+00
   Bfn.  Coefficient  Atom+Function         Bfn.  Coefficient  Atom+Function  
  ----- ------------  ---------------      ----- ------------  ---------------
   424      0.378797  26 O  pz              427      0.295691  26 O  pz        
   333     -0.251012  20 H  s               254     -0.233842  16 O  pz        
   279      0.209681  17 N  pz              282      0.199382  17 N  pz        
   257     -0.185239  16 O  pz              422     -0.157337  26 O  px        
   395      0.150429  25 C  s         

 Vector   52  Occ=2.000000D+00  E=-4.112846D-01
              MO Center= -4.2D-01, -8.1D-01, -3.6D-02, r^2= 5.4D+00
   Bfn.  Coefficient  Atom+Function         Bfn.  Coefficient  Atom+Function  
  ----- ------------  ---------------      ----- ------------  ---------------
   108      0.290717   7 N  py              253     -0.270606  16 O  py        
   111      0.262017   7 N  py              256     -0.210202  16 O  py        
    83     -0.193906   6 O  py              142     -0.178681   9 C  py        
   145     -0.174334   9 C  py              252     -0.164290  16 O  px        
   228      0.162429  15 C  py               86     -0.158898   6 O  py        

 Vector   53  Occ=2.000000D+00  E=-3.948192D-01
              MO Center=  4.5D-01,  2.5D+00,  9.1D-01, r^2= 3.6D+00
   Bfn.  Coefficient  Atom+Function         Bfn.  Coefficient  Atom+Function  
  ----- ------------  ---------------      ----- ------------  ---------------
   424      0.297972  26 O  pz              447     -0.269621  27 N  px        
   448      0.266345  27 N  py              427      0.232028  26 O  pz        
   451      0.228863  27 N  py              450     -0.209406  27 N  px        
   423     -0.196126  26 O  py              422      0.164876  26 O  px        
   426     -0.158692  26 O  py              396      0.154731  25 C  s         

 Vector   54  Occ=2.000000D+00  E=-3.876640D-01
              MO Center=  2.7D-01,  1.9D+00,  1.4D-01, r^2= 4.5D+00
   Bfn.  Coefficient  Atom+Function         Bfn.  Coefficient  Atom+Function  
  ----- ------------  ---------------      ----- ------------  ---------------
   279      0.299496  17 N  pz              282      0.278068  17 N  pz        
   423     -0.221089  26 O  py              424     -0.211252  26 O  pz        
   254     -0.189680  16 O  pz              422      0.186066  26 O  px        
   426     -0.165530  26 O  py              313     -0.162633  19 C  pz        
   427     -0.162912  26 O  pz              257     -0.154815  16 O  pz        

 Vector   55  Occ=0.000000D+00  E= 2.057530D-02
              MO Center= -2.4D-01, -4.1D+00,  2.0D+00, r^2= 1.9D+01
   Bfn.  Coefficient  Atom+Function         Bfn.  Coefficient  Atom+Function  
  ----- ------------  ---------------      ----- ------------  ---------------
   234      3.056365  15 C  py              106      2.632439   7 N  s         
   226     -2.614528  15 C  s               148      2.022548   9 C  py        
   233      1.877270  15 C  px              207      1.842497  13 H  s         
    12     -1.823252   2 C  s               344     -1.640085  21 C  s         
    46      1.618333   4 H  s               276     -1.419693  17 N  s         

 Vector   56  Occ=0.000000D+00  E= 3.583116D-02
              MO Center= -1.2D+00, -2.6D+00,  2.8D-01, r^2= 3.0D+01
   Bfn.  Coefficient  Atom+Function         Bfn.  Coefficient  Atom+Function  
  ----- ------------  ---------------      ----- ------------  ---------------
    63      3.033469   5 C  px              207      2.661888  13 H  s         
    37     -2.367341   3 H  s               233      2.378720  15 C  px        
    64     -2.203595   5 C  py              140      1.959192   9 C  s         
   284      1.907899  17 N  py              396     -1.893999  25 C  s         
   234      1.709092  15 C  py              198      1.660176  12 H  s         

 Vector   57  Occ=0.000000D+00  E= 3.846805D-02
              MO Center= -5.0D-03, -2.3D+00,  1.8D+00, r^2= 3.2D+01
   Bfn.  Coefficient  Atom+Function         Bfn.  Coefficient  Atom+Function  
  ----- ------------  ---------------      ----- ------------  ---------------
   147      2.645582   9 C  px               63      2.547663   5 C  px        
   216      2.184908  14 H  s                46     -2.129068   4 H  s         
     3     -1.844019   1 H  s                12      1.568046   2 C  s         
   173     -1.554325  11 C  s               479      1.363037  29 H  s         
   405     -1.342421  25 C  pz              446      1.301475  27 N  s         

 Vector   58  Occ=0.000000D+00  E= 4.144122D-02
              MO Center= -2.2D-01, -3.0D-01, -1.2D+00, r^2= 3.4D+01
   Bfn.  Coefficient  Atom+Function         Bfn.  Coefficient  Atom+Function  
  ----- ------------  ---------------      ----- ------------  ---------------
   234      4.030015  15 C  py              174      3.238372  11 C  s         
   396      2.716747  25 C  s               276     -2.643876  17 N  s         
   149     -2.588861   9 C  pz              164     -2.414150  10 H  s         
   106      2.149468   7 N  s               207      2.147924  13 H  s         
   446     -1.925653  27 N  s               377     -1.906267  23 H  s         

 Vector   59  Occ=0.000000D+00  E= 5.292545D-02
              MO Center=  4.7D-02, -5.7D-01, -1.1D+00, r^2= 4.2D+01
   Bfn.  Coefficient  Atom+Function         Bfn.  Coefficient  Atom+Function  
  ----- ------------  ---------------      ----- ------------  ---------------
   276      3.602272  17 N  s               130      3.377057   8 H  s         
     3     -3.204351   1 H  s               233     -2.919261  15 C  px        
   106      2.587155   7 N  s               234     -2.599629  15 C  py        
   377      2.411236  23 H  s                56     -2.266936   5 C  s         
    63      2.113976   5 C  px              198     -1.930000  12 H  s         

 Vector   60  Occ=0.000000D+00  E= 5.570928D-02
              MO Center= -2.5D-01,  6.4D-01,  2.3D+00, r^2= 3.5D+01
   Bfn.  Coefficient  Atom+Function         Bfn.  Coefficient  Atom+Function  
  ----- ------------  ---------------      ----- ------------  ---------------
    46      3.036098   4 H  s               446      2.970009  27 N  s         
   479      2.710505  29 H  s               234     -2.497073  15 C  py        
   405     -2.480496  25 C  pz              318     -2.029902  19 C  py        
    37     -1.992272   3 H  s               334     -1.672985  20 H  s         
   226     -1.533901  15 C  s               455     -1.427516  27 N  pz        

 Vector   61  Occ=0.000000D+00  E= 5.804488D-02
              MO Center= -1.2D-01, -7.8D-01, -7.2D-01, r^2= 3.9D+01
   Bfn.  Coefficient  Atom+Function         Bfn.  Coefficient  Atom+Function  
  ----- ------------  ---------------      ----- ------------  ---------------
   164      5.345346  10 H  s               149      4.021768   9 C  pz        
    13     -3.476071   2 C  s                63      3.426457   5 C  px        
   226      3.102322  15 C  s                37      2.691367   3 H  s         
     3     -2.589308   1 H  s               216     -2.510163  14 H  s         
   368     -2.164297  22 H  s               113      2.151161   7 N  px        

 Vector   62  Occ=0.000000D+00  E= 5.928694D-02
              MO Center= -2.9D-01, -6.2D-01, -4.3D-01, r^2= 3.9D+01
   Bfn.  Coefficient  Atom+Function         Bfn.  Coefficient  Atom+Function  
  ----- ------------  ---------------      ----- ------------  ---------------
   198      3.828681  12 H  s               226      3.737006  15 C  s         
   334     -3.410600  20 H  s                13     -3.125105   2 C  s         
   207     -3.124563  13 H  s               140      2.260118   9 C  s         
   317      2.205513  19 C  px              113      2.133915   7 N  px        
   386      1.986152  24 H  s               276     -1.761566  17 N  s         

 Vector   63  Occ=0.000000D+00  E= 6.480335D-02
              MO Center= -4.7D-01, -9.4D-01,  4.7D-01, r^2= 3.9D+01
   Bfn.  Coefficient  Atom+Function         Bfn.  Coefficient  Atom+Function  
  ----- ------------  ---------------      ----- ------------  ---------------
   207      4.391668  13 H  s               216     -3.844313  14 H  s         
    37      3.484013   3 H  s               164     -2.935568  10 H  s         
   368      2.693005  22 H  s               149     -2.408296   9 C  pz        
     3     -1.719838   1 H  s               377     -1.658011  23 H  s         
   352     -1.645517  21 C  py              235      1.625778  15 C  pz        

 Vector   64  Occ=0.000000D+00  E= 7.514843D-02
              MO Center=  6.8D-01, -6.2D-01, -7.3D-01, r^2= 4.3D+01
   Bfn.  Coefficient  Atom+Function         Bfn.  Coefficient  Atom+Function  
  ----- ------------  ---------------      ----- ------------  ---------------
   334      4.840529  20 H  s               140      4.634752   9 C  s         
   198      4.244719  12 H  s               226      4.186224  15 C  s         
   147      4.113361   9 C  px              396     -4.052801  25 C  s         
     3     -3.973739   1 H  s                46      3.794006   4 H  s         
    56     -3.733932   5 C  s                13     -3.382270   2 C  s         

 Vector   65  Occ=0.000000D+00  E= 7.799758D-02
              MO Center= -3.6D-01,  4.0D-01, -1.1D+00, r^2= 3.8D+01
   Bfn.  Coefficient  Atom+Function         Bfn.  Coefficient  Atom+Function  
  ----- ------------  ---------------      ----- ------------  ---------------
   377      6.361675  23 H  s               234      5.299648  15 C  py        
    56      5.051924   5 C  s                63     -3.716967   5 C  px        
   386     -3.371898  24 H  s                64      3.000462   5 C  py        
   334     -2.991111  20 H  s               207      2.839290  13 H  s         
   130     -2.643087   8 H  s               149     -2.568166   9 C  pz        

 Vector   66  Occ=0.000000D+00  E= 8.246333D-02
              MO Center= -7.5D-01,  6.9D-01, -5.9D-01, r^2= 4.0D+01
   Bfn.  Coefficient  Atom+Function         Bfn.  Coefficient  Atom+Function  
  ----- ------------  ---------------      ----- ------------  ---------------
   368      5.399407  22 H  s               396      4.597059  25 C  s         
   164      4.455320  10 H  s               216      4.298393  14 H  s         
   130     -3.723727   8 H  s               174     -3.738500  11 C  s         
   386     -3.627732  24 H  s               149      3.552652   9 C  pz        
   234     -3.350288  15 C  py              300     -3.047923  18 H  s         

 Vector   67  Occ=0.000000D+00  E= 8.807560D-02
              MO Center= -1.1D+00,  4.6D-01,  7.1D-01, r^2= 3.7D+01
   Bfn.  Coefficient  Atom+Function         Bfn.  Coefficient  Atom+Function  
  ----- ------------  ---------------      ----- ------------  ---------------
   130      4.520686   8 H  s               470     -4.262929  28 H  s         
   198      3.583255  12 H  s               386     -3.450593  24 H  s         
   368      3.362830  22 H  s               207     -3.251341  13 H  s         
   147     -2.841591   9 C  px                3      2.747720   1 H  s         
   235      2.616854  15 C  pz              479      2.597537  29 H  s         

 Vector   68  Occ=0.000000D+00  E= 9.922669D-02
              MO Center= -1.5D+00,  7.6D-01,  1.2D+00, r^2= 3.4D+01
   Bfn.  Coefficient  Atom+Function         Bfn.  Coefficient  Atom+Function  
  ----- ------------  ---------------      ----- ------------  ---------------
   470      7.446598  28 H  s               174      6.501941  11 C  s         
   386     -5.386460  24 H  s               216     -5.337041  14 H  s         
   396      3.459635  25 C  s               198      3.227077  12 H  s         
   319     -2.672808  19 C  pz              164     -2.642629  10 H  s         
   147      2.487568   9 C  px              377      2.446270  23 H  s         

 Vector   69  Occ=0.000000D+00  E= 1.031957D-01
              MO Center=  1.2D+00, -9.8D-01,  2.0D-01, r^2= 3.1D+01
   Bfn.  Coefficient  Atom+Function         Bfn.  Coefficient  Atom+Function  
  ----- ------------  ---------------      ----- ------------  ---------------
   344      8.605492  21 C  s               300      8.186836  18 H  s         
   396     -7.492740  25 C  s               334     -6.453595  20 H  s         
   276      5.716933  17 N  s               317      5.239232  19 C  px        
    56     -5.033150   5 C  s               405      4.649593  25 C  pz        
   233     -4.319040  15 C  px              234     -3.933577  15 C  py        

 Vector   70  Occ=0.000000D+00  E= 1.091093D-01
              MO Center=  1.4D+00, -2.3D-01, -1.2D+00, r^2= 2.8D+01
   Bfn.  Coefficient  Atom+Function         Bfn.  Coefficient  Atom+Function  
  ----- ------------  ---------------      ----- ------------  ---------------
   300     11.998407  18 H  s               174     -7.613402  11 C  s         
    13     -7.172725   2 C  s               226      6.756656  15 C  s         
    63      5.733374   5 C  px              140      5.354159   9 C  s         
   148     -5.270632   9 C  py              334     -5.114455  20 H  s         
    64     -3.762469   5 C  py              396      3.136508  25 C  s         

 Vector   71  Occ=0.000000D+00  E= 1.182055D-01
              MO Center= -1.7D-01,  4.7D-01, -6.9D-01, r^2= 3.1D+01
   Bfn.  Coefficient  Atom+Function         Bfn.  Coefficient  Atom+Function  
  ----- ------------  ---------------      ----- ------------  ---------------
   396    -16.517155  25 C  s               344     15.219087  21 C  s         
   226     -8.147018  15 C  s               319      5.275359  19 C  pz        
   317      5.193302  19 C  px              147     -4.910347   9 C  px        
   300      4.824099  18 H  s                13      4.773641   2 C  s         
   334     -4.588330  20 H  s               470      4.565810  28 H  s         

 Vector   72  Occ=0.000000D+00  E= 1.282693D-01
              MO Center=  1.9D-02,  1.4D+00, -3.1D-01, r^2= 3.2D+01
   Bfn.  Coefficient  Atom+Function         Bfn.  Coefficient  Atom+Function  
  ----- ------------  ---------------      ----- ------------  ---------------
   396     22.583001  25 C  s               344    -13.786634  21 C  s         
   446     -7.815365  27 N  s               319     -6.753168  19 C  pz        
   404     -6.388174  25 C  py              300      6.019898  18 H  s         
   377     -5.693769  23 H  s               310      4.780844  19 C  s         
   226     -4.630291  15 C  s               353     -4.484936  21 C  pz        

 Vector   73  Occ=0.000000D+00  E= 1.294969D-01
              MO Center=  4.8D-01, -2.5D+00,  5.8D-01, r^2= 2.4D+01
   Bfn.  Coefficient  Atom+Function         Bfn.  Coefficient  Atom+Function  
  ----- ------------  ---------------      ----- ------------  ---------------
   106     10.952652   7 N  s               226     -9.913428  15 C  s         
    56     -8.715923   5 C  s               174      6.125758  11 C  s         
   148      5.555546   9 C  py              234      5.293479  15 C  py        
   140     -3.911348   9 C  s               139     -3.012245   9 C  s         
   344     -2.940133  21 C  s               149     -2.681539   9 C  pz        

 Vector   74  Occ=0.000000D+00  E= 1.336340D-01
              MO Center= -6.0D-01, -1.1D+00, -6.6D-01, r^2= 2.8D+01
   Bfn.  Coefficient  Atom+Function         Bfn.  Coefficient  Atom+Function  
  ----- ------------  ---------------      ----- ------------  ---------------
   226     17.291758  15 C  s               174    -12.319765  11 C  s         
    63     11.709472   5 C  px              140     11.644945   9 C  s         
    13    -11.051131   2 C  s               149      7.663567   9 C  pz        
   148     -6.852622   9 C  py              164      6.814479  10 H  s         
   234     -5.319460  15 C  py              181     -4.829536  11 C  px        

 Vector   75  Occ=0.000000D+00  E= 1.401164D-01
              MO Center=  7.1D-01, -5.8D-01,  9.4D-01, r^2= 2.4D+01
   Bfn.  Coefficient  Atom+Function         Bfn.  Coefficient  Atom+Function  
  ----- ------------  ---------------      ----- ------------  ---------------
   174      6.098989  11 C  s               284      5.981937  17 N  py        
   405      4.830776  25 C  pz              396     -4.760689  25 C  s         
   148      4.521722   9 C  py              147      4.051666   9 C  px        
    56     -3.943785   5 C  s                64      2.990253   5 C  py        
   233      2.822971  15 C  px              226     -2.560512  15 C  s         

 Vector   76  Occ=0.000000D+00  E= 1.435434D-01
              MO Center= -1.2D+00, -1.8D+00,  8.7D-01, r^2= 2.9D+01
   Bfn.  Coefficient  Atom+Function         Bfn.  Coefficient  Atom+Function  
  ----- ------------  ---------------      ----- ------------  ---------------
   174     13.596888  11 C  s               234      9.567232  15 C  py        
   276     -9.355046  17 N  s               147      8.257471   9 C  px        
   233      6.573464  15 C  px               56     -6.378212   5 C  s         
   181      6.033733  11 C  px               63      5.192238   5 C  px        
   182      4.620499  11 C  py              216      4.325023  14 H  s         

 Vector   77  Occ=0.000000D+00  E= 1.482269D-01
              MO Center=  3.4D-01,  1.2D+00,  7.4D-02, r^2= 3.1D+01
   Bfn.  Coefficient  Atom+Function         Bfn.  Coefficient  Atom+Function  
  ----- ------------  ---------------      ----- ------------  ---------------
   446     -8.430274  27 N  s               147     -8.258942   9 C  px        
    56      7.907338   5 C  s               300     -6.688959  18 H  s         
   403     -5.693163  25 C  px               63     -5.415139   5 C  px        
   234      5.056440  15 C  py              174     -4.980087  11 C  s         
   113     -4.683495   7 N  px              233      4.338947  15 C  px        

 Vector   78  Occ=0.000000D+00  E= 1.522973D-01
              MO Center=  6.0D-01, -1.6D+00, -1.7D-01, r^2= 2.6D+01
   Bfn.  Coefficient  Atom+Function         Bfn.  Coefficient  Atom+Function  
  ----- ------------  ---------------      ----- ------------  ---------------
   234     -7.202588  15 C  py              147      7.070208   9 C  px        
   284      6.189964  17 N  py              140      6.046357   9 C  s         
    63      5.967942   5 C  px              226      5.236298  15 C  s         
   446      4.684087  27 N  s                12      4.647055   2 C  s         
   396     -4.121963  25 C  s               276     -3.688074  17 N  s         

 Vector   79  Occ=0.000000D+00  E= 1.550855D-01
              MO Center=  3.6D-01, -2.2D+00,  1.3D-01, r^2= 2.6D+01
   Bfn.  Coefficient  Atom+Function         Bfn.  Coefficient  Atom+Function  
  ----- ------------  ---------------      ----- ------------  ---------------
   174      9.233893  11 C  s               147      8.852703   9 C  px        
   234      5.671334  15 C  py              396      5.254490  25 C  s         
   446     -5.145340  27 N  s               276     -5.108648  17 N  s         
   181      4.044600  11 C  px               46     -4.018449   4 H  s         
    12      3.389748   2 C  s                45     -3.292169   4 H  s         

 Vector   80  Occ=0.000000D+00  E= 1.571977D-01
              MO Center= -6.9D-01, -1.0D+00, -4.7D-01, r^2= 2.6D+01
   Bfn.  Coefficient  Atom+Function         Bfn.  Coefficient  Atom+Function  
  ----- ------------  ---------------      ----- ------------  ---------------
   234     12.700609  15 C  py              149     -6.587781   9 C  pz        
   276     -6.559560  17 N  s               106      6.466308   7 N  s         
   233      5.817826  15 C  px              113     -5.319807   7 N  px        
    56      5.014123   5 C  s               148      4.294166   9 C  py        
    37     -3.528176   3 H  s               130      3.098446   8 H  s         

 Vector   81  Occ=0.000000D+00  E= 1.596334D-01
              MO Center= -1.1D+00, -1.1D+00, -4.7D-01, r^2= 2.7D+01
   Bfn.  Coefficient  Atom+Function         Bfn.  Coefficient  Atom+Function  
  ----- ------------  ---------------      ----- ------------  ---------------
   234     10.306007  15 C  py              276     -6.218426  17 N  s         
   149     -5.879396   9 C  pz               56      5.322488   5 C  s         
   113     -4.885495   7 N  px              130      3.978702   8 H  s         
   164     -3.881140  10 H  s               233      3.516583  15 C  px        
   318     -3.424016  19 C  py              300     -3.371652  18 H  s         

 Vector   82  Occ=0.000000D+00  E= 1.608660D-01
              MO Center= -6.5D-01,  7.0D-01,  5.0D-01, r^2= 2.7D+01
   Bfn.  Coefficient  Atom+Function         Bfn.  Coefficient  Atom+Function  
  ----- ------------  ---------------      ----- ------------  ---------------
   446     10.062055  27 N  s               396     -8.825137  25 C  s         
   226     -7.911795  15 C  s               234     -6.778349  15 C  py        
   140     -5.763498   9 C  s               310     -5.742461  19 C  s         
   318     -5.008915  19 C  py              344      4.995330  21 C  s         
   405     -4.996039  25 C  pz              174     -4.786768  11 C  s         

 Vector   83  Occ=0.000000D+00  E= 1.643528D-01
              MO Center=  9.1D-01, -1.7D+00,  4.4D-01, r^2= 2.9D+01
   Bfn.  Coefficient  Atom+Function         Bfn.  Coefficient  Atom+Function  
  ----- ------------  ---------------      ----- ------------  ---------------
   130      7.002577   8 H  s               106      6.441775   7 N  s         
   396     -6.185817  25 C  s               344      5.874692  21 C  s         
    20      4.443180   2 C  px              235      4.446646  15 C  pz        
     3     -4.255641   1 H  s               113      3.871670   7 N  px        
    65     -3.745189   5 C  pz              216     -3.648809  14 H  s         

 Vector   84  Occ=0.000000D+00  E= 1.689304D-01
              MO Center=  2.8D-01,  8.0D-01, -6.4D-01, r^2= 3.1D+01
   Bfn.  Coefficient  Atom+Function         Bfn.  Coefficient  Atom+Function  
  ----- ------------  ---------------      ----- ------------  ---------------
   276      8.761982  17 N  s               396     -7.688957  25 C  s         
   233     -7.420787  15 C  px              147      7.237776   9 C  px        
    56     -6.325835   5 C  s               319      6.236035  19 C  pz        
   234     -4.976038  15 C  py              405      4.972852  25 C  pz        
   318      4.304312  19 C  py              446     -4.160971  27 N  s         

 Vector   85  Occ=0.000000D+00  E= 1.724750D-01
              MO Center= -6.6D-02,  1.1D-01, -2.9D-01, r^2= 3.0D+01
   Bfn.  Coefficient  Atom+Function         Bfn.  Coefficient  Atom+Function  
  ----- ------------  ---------------      ----- ------------  ---------------
   344     -6.727845  21 C  s               446     -6.717152  27 N  s         
   233      6.663753  15 C  px              318      6.095770  19 C  py        
   226      4.966258  15 C  s               334      4.842818  20 H  s         
   164     -4.393511  10 H  s               300      4.370579  18 H  s         
   284      4.264579  17 N  py              198      4.008037  12 H  s         

 Vector   86  Occ=0.000000D+00  E= 1.743069D-01
              MO Center= -5.4D-01, -1.3D+00,  4.0D-01, r^2= 2.8D+01
   Bfn.  Coefficient  Atom+Function         Bfn.  Coefficient  Atom+Function  
  ----- ------------  ---------------      ----- ------------  ---------------
    56      7.992386   5 C  s               233      7.483313  15 C  px        
   149     -5.695160   9 C  pz              147     -5.477380   9 C  px        
   148      5.473273   9 C  py              164     -4.536555  10 H  s         
    63     -4.456543   5 C  px              276     -4.457313  17 N  s         
   181      4.401224  11 C  px              198      4.422154  12 H  s         

 Vector   87  Occ=0.000000D+00  E= 1.775785D-01
              MO Center=  6.2D-01, -7.1D-01, -2.1D-01, r^2= 2.6D+01
   Bfn.  Coefficient  Atom+Function         Bfn.  Coefficient  Atom+Function  
  ----- ------------  ---------------      ----- ------------  ---------------
   106      7.690558   7 N  s                56     -6.754995   5 C  s         
    63      6.556282   5 C  px               64     -5.973495   5 C  py        
   276      5.530503  17 N  s               405      4.898451  25 C  pz        
   300      4.605254  18 H  s                12      4.023313   2 C  s         
   226     -3.677672  15 C  s                65      3.541599   5 C  pz        

 Vector   88  Occ=0.000000D+00  E= 1.799083D-01
              MO Center= -2.1D-01, -1.5D+00, -6.6D-03, r^2= 2.2D+01
   Bfn.  Coefficient  Atom+Function         Bfn.  Coefficient  Atom+Function  
  ----- ------------  ---------------      ----- ------------  ---------------
   174     12.979169  11 C  s               106      9.980329   7 N  s         
   226     -7.992891  15 C  s               148      7.416831   9 C  py        
   181      5.870540  11 C  px              149     -5.321648   9 C  pz        
   396     -4.931267  25 C  s                56     -4.860689   5 C  s         
   234      4.592053  15 C  py              300     -4.017863  18 H  s         

 Vector   89  Occ=0.000000D+00  E= 1.847963D-01
              MO Center=  2.6D-01, -7.8D-01, -4.3D-01, r^2= 3.0D+01
   Bfn.  Coefficient  Atom+Function         Bfn.  Coefficient  Atom+Function  
  ----- ------------  ---------------      ----- ------------  ---------------
   344      9.073794  21 C  s               234     -7.571971  15 C  py        
   149      6.477514   9 C  pz               56     -5.391978   5 C  s         
   216      4.611378  14 H  s               396     -4.425683  25 C  s         
    64     -4.376815   5 C  py               63      4.318546   5 C  px        
   207     -4.328877  13 H  s                37     -4.124044   3 H  s         

 Vector   90  Occ=0.000000D+00  E= 1.869694D-01
              MO Center=  4.1D-01,  9.8D-01, -4.2D-01, r^2= 2.5D+01
   Bfn.  Coefficient  Atom+Function         Bfn.  Coefficient  Atom+Function  
  ----- ------------  ---------------      ----- ------------  ---------------
   174     11.049597  11 C  s               344     -8.490538  21 C  s         
   233      6.991485  15 C  px              234      6.890409  15 C  py        
   284      6.650448  17 N  py              317     -6.193941  19 C  px        
   148      5.635495   9 C  py              368     -4.988873  22 H  s         
   353     -4.716220  21 C  pz              318      4.116464  19 C  py        

[...]
     2     -7.530673   1 H  s                56      6.250077   5 C  s         

 Vector  136  Occ=0.000000D+00  E= 4.220264D-01
              MO Center=  3.7D-02, -4.6D-01, -2.1D-01, r^2= 1.9D+01
   Bfn.  Coefficient  Atom+Function         Bfn.  Coefficient  Atom+Function  
  ----- ------------  ---------------      ----- ------------  ---------------
    56     11.149997   5 C  s                13     10.978836   2 C  s         
   113    -10.800355   7 N  px              226    -10.700334  15 C  s         
   147     -9.504331   9 C  px              106      9.181889   7 N  s         
   446     -9.065420  27 N  s               173      7.732003  11 C  s         
   343      7.198181  21 C  s               396      6.895344  25 C  s         

 Vector  137  Occ=0.000000D+00  E= 4.239633D-01
              MO Center= -1.5D-01,  2.6D-01,  3.0D-01, r^2= 1.9D+01
   Bfn.  Coefficient  Atom+Function         Bfn.  Coefficient  Atom+Function  
  ----- ------------  ---------------      ----- ------------  ---------------
   226     11.914085  15 C  s               140     10.086846   9 C  s         
   284      9.880232  17 N  py              147      9.214355   9 C  px        
   149      8.768182   9 C  pz              174      8.113913  11 C  s         
   235     -8.030368  15 C  pz               56     -7.895078   5 C  s         
   446     -7.351028  27 N  s                13     -6.277946   2 C  s         

 Vector  138  Occ=0.000000D+00  E= 4.299200D-01
              MO Center=  1.1D+00, -9.0D-01,  1.7D-01, r^2= 2.0D+01
   Bfn.  Coefficient  Atom+Function         Bfn.  Coefficient  Atom+Function  
  ----- ------------  ---------------      ----- ------------  ---------------
   226     11.721614  15 C  s                13    -10.558989   2 C  s         
   140      9.991393   9 C  s                63      8.800685   5 C  px        
   276     -8.009894  17 N  s               113      6.820980   7 N  px        
   114     -5.608210   7 N  py              396     -4.936062  25 C  s         
   343      4.665634  21 C  s               367     -4.478029  22 H  s         

 Vector  139  Occ=0.000000D+00  E= 4.323662D-01
              MO Center=  5.7D-01, -1.5D+00,  6.0D-01, r^2= 2.1D+01
   Bfn.  Coefficient  Atom+Function         Bfn.  Coefficient  Atom+Function  
  ----- ------------  ---------------      ----- ------------  ---------------
   396     13.579295  25 C  s               234     11.489468  15 C  py        
   276    -11.372215  17 N  s               344     -8.529081  21 C  s         
    13     -6.769021   2 C  s               446     -6.742066  27 N  s         
    36      5.948966   3 H  s               226      4.993509  15 C  s         
   140      4.925133   9 C  s               174     -4.932809  11 C  s         

 Vector  140  Occ=0.000000D+00  E= 4.387264D-01
              MO Center= -2.8D-01,  7.4D-01,  3.2D-01, r^2= 2.0D+01
   Bfn.  Coefficient  Atom+Function         Bfn.  Coefficient  Atom+Function  
  ----- ------------  ---------------      ----- ------------  ---------------
   234     10.826345  15 C  py               56      7.205343   5 C  s         
   276     -7.011728  17 N  s               405     -6.586840  25 C  pz        
   163      5.876666  10 H  s               344     -5.730458  21 C  s         
   317     -5.349278  19 C  px              174      4.853981  11 C  s         
   233      4.437469  15 C  px              284      4.239809  17 N  py        

 Vector  141  Occ=0.000000D+00  E= 4.463500D-01
              MO Center=  1.4D-02, -1.4D+00, -5.9D-02, r^2= 1.9D+01
   Bfn.  Coefficient  Atom+Function         Bfn.  Coefficient  Atom+Function  
  ----- ------------  ---------------      ----- ------------  ---------------
   226     15.153720  15 C  s                13    -13.556379   2 C  s         
   396    -12.727813  25 C  s               140     12.643829   9 C  s         
   148    -10.173656   9 C  py               63      9.733910   5 C  px        
    56     -6.465035   5 C  s               113      6.019094   7 N  px        
   300      5.795179  18 H  s               344      5.720893  21 C  s         

 Vector  142  Occ=0.000000D+00  E= 4.510280D-01
              MO Center=  1.8D-02,  1.5D-01, -1.4D-01, r^2= 1.7D+01
   Bfn.  Coefficient  Atom+Function         Bfn.  Coefficient  Atom+Function  
  ----- ------------  ---------------      ----- ------------  ---------------
   174     22.984874  11 C  s               234     15.819230  15 C  py        
   276    -11.703653  17 N  s               344     -9.201304  21 C  s         
    12      7.430089   2 C  s               147      7.326538   9 C  px        
   233      6.867002  15 C  px              226     -6.571355  15 C  s         
   343     -6.578832  21 C  s               148      5.864026   9 C  py        

 Vector  143  Occ=0.000000D+00  E= 4.540068D-01
              MO Center=  7.5D-02, -1.5D-02, -4.3D-01, r^2= 1.9D+01
   Bfn.  Coefficient  Atom+Function         Bfn.  Coefficient  Atom+Function  
  ----- ------------  ---------------      ----- ------------  ---------------
   396     15.403705  25 C  s               446     -6.935910  27 N  s         
   319     -6.308401  19 C  pz              163     -5.974046  10 H  s         
   344     -5.474656  21 C  s               300     -5.291054  18 H  s         
    12     -5.061481   2 C  s               276     -4.984057  17 N  s         
   234     -4.407731  15 C  py              113     -4.252026   7 N  px        

 Vector  144  Occ=0.000000D+00  E= 4.584473D-01
              MO Center= -1.3D-01,  9.7D-01, -6.9D-01, r^2= 1.9D+01
   Bfn.  Coefficient  Atom+Function         Bfn.  Coefficient  Atom+Function  
  ----- ------------  ---------------      ----- ------------  ---------------
   344     23.069432  21 C  s                56    -13.822558   5 C  s         
   226    -13.412711  15 C  s               284    -12.352030  17 N  py        
   233     -9.198279  15 C  px              147      8.528288   9 C  px        
   174      8.505443  11 C  s               343      8.070860  21 C  s         
   234     -7.079515  15 C  py              367     -7.067211  22 H  s         

 Vector  145  Occ=0.000000D+00  E= 4.658834D-01
              MO Center= -4.7D-01,  2.7D-01, -2.3D-01, r^2= 1.8D+01
   Bfn.  Coefficient  Atom+Function         Bfn.  Coefficient  Atom+Function  
  ----- ------------  ---------------      ----- ------------  ---------------
   106      8.720045   7 N  s               344      8.534114  21 C  s         
   396     -8.338669  25 C  s               174     -7.726770  11 C  s         
   376     -6.716949  23 H  s               226     -6.304482  15 C  s         
   147     -5.955504   9 C  px               12      5.371006   2 C  s         
   139     -4.410838   9 C  s               173     -4.038348  11 C  s         

 Vector  146  Occ=0.000000D+00  E= 4.688209D-01
              MO Center= -1.4D+00, -1.4D-01, -2.4D-01, r^2= 1.9D+01
   Bfn.  Coefficient  Atom+Function         Bfn.  Coefficient  Atom+Function  
  ----- ------------  ---------------      ----- ------------  ---------------
   234      6.315086  15 C  py              215      5.839620  14 H  s         
   318      4.816791  19 C  py              396     -4.802229  25 C  s         
   367      4.643708  22 H  s               405      4.438263  25 C  pz        
   163      4.041793  10 H  s                63     -4.003889   5 C  px        
   182     -3.994733  11 C  py              385      3.641933  24 H  s         

 Vector  147  Occ=0.000000D+00  E= 4.738592D-01
              MO Center= -1.2D+00, -1.0D+00,  2.2D-01, r^2= 1.7D+01
   Bfn.  Coefficient  Atom+Function         Bfn.  Coefficient  Atom+Function  
  ----- ------------  ---------------      ----- ------------  ---------------
   174     36.719593  11 C  s               215    -13.263410  14 H  s         
   173     13.102858  11 C  s               147     12.788433   9 C  px        
    56    -12.676584   5 C  s               206    -11.471644  13 H  s         
   344    -10.277712  21 C  s               197     -9.410100  12 H  s         
   276     -9.352432  17 N  s               234      8.588599  15 C  py        

 Vector  148  Occ=0.000000D+00  E= 4.788619D-01
              MO Center=  1.9D-01,  3.1D-01, -6.2D-01, r^2= 1.5D+01
   Bfn.  Coefficient  Atom+Function         Bfn.  Coefficient  Atom+Function  
  ----- ------------  ---------------      ----- ------------  ---------------
   276     -8.971402  17 N  s               233      8.398557  15 C  px        
   234      8.027709  15 C  py               12     -6.576328   2 C  s         
   396     -6.391514  25 C  s               284     -5.709094  17 N  py        
   333      5.143825  20 H  s               385     -4.730189  24 H  s         
   174      4.602141  11 C  s               317     -4.075696  19 C  px        

 Vector  149  Occ=0.000000D+00  E= 4.810886D-01
              MO Center= -4.4D-01, -3.7D-01, -1.3D-01, r^2= 1.8D+01
   Bfn.  Coefficient  Atom+Function         Bfn.  Coefficient  Atom+Function  
  ----- ------------  ---------------      ----- ------------  ---------------
   226     28.741459  15 C  s               140     18.978017   9 C  s         
    13    -16.886532   2 C  s               276    -11.655043  17 N  s         
    63     10.541390   5 C  px              174    -10.496282  11 C  s         
    12     -9.634932   2 C  s               106     -8.844776   7 N  s         
   149      8.119230   9 C  pz              113      7.863767   7 N  px        

 Vector  150  Occ=0.000000D+00  E= 4.879664D-01
              MO Center=  4.4D-01, -6.6D-01,  6.6D-02, r^2= 1.7D+01
   Bfn.  Coefficient  Atom+Function         Bfn.  Coefficient  Atom+Function  
  ----- ------------  ---------------      ----- ------------  ---------------
   284     11.158359  17 N  py              344    -10.941801  21 C  s         
   396      5.982974  25 C  s               226      5.932286  15 C  s         
   234      5.670393  15 C  py              140      5.081232   9 C  s         
   317     -5.023402  19 C  px              446     -4.874119  27 N  s         
   283      4.669806  17 N  px               56      4.532603   5 C  s         

 Vector  151  Occ=0.000000D+00  E= 4.898737D-01
              MO Center=  6.1D-02,  7.2D-01, -8.4D-01, r^2= 1.8D+01
   Bfn.  Coefficient  Atom+Function         Bfn.  Coefficient  Atom+Function  
  ----- ------------  ---------------      ----- ------------  ---------------
   344     18.424177  21 C  s               396     -9.383876  25 C  s         
   376     -7.743591  23 H  s               174     -7.096164  11 C  s         
   318     -6.238587  19 C  py               12     -5.778652   2 C  s         
   234     -5.766955  15 C  py              283     -5.675535  17 N  px        
   197      5.389961  12 H  s               319      5.201763  19 C  pz        

 Vector  152  Occ=0.000000D+00  E= 4.969335D-01
              MO Center= -1.1D-01, -1.0D-01, -1.7D-01, r^2= 1.7D+01
   Bfn.  Coefficient  Atom+Function         Bfn.  Coefficient  Atom+Function  
  ----- ------------  ---------------      ----- ------------  ---------------
   226     12.309002  15 C  s               343     -9.946788  21 C  s         
    56      9.350266   5 C  s               344     -8.951676  21 C  s         
   367      8.364222  22 H  s               174     -7.681382  11 C  s         
   140      6.776393   9 C  s               233      6.525145  15 C  px        
   276     -5.789274  17 N  s               147     -5.208169   9 C  px        

 Vector  153  Occ=0.000000D+00  E= 5.053756D-01
              MO Center= -4.3D-01, -1.1D+00, -1.2D-01, r^2= 1.6D+01
   Bfn.  Coefficient  Atom+Function         Bfn.  Coefficient  Atom+Function  
  ----- ------------  ---------------      ----- ------------  ---------------
   226     19.623439  15 C  s               174    -16.550168  11 C  s         
    13    -15.175247   2 C  s               140     10.973255   9 C  s         
   106    -10.224051   7 N  s               396      7.718610  25 C  s         
   284     -7.301689  17 N  py              148     -7.162331   9 C  py        
   206      6.926212  13 H  s               276     -6.603404  17 N  s         


 center of mass
 --------------
 x =   0.03022705 y =   0.06431543 z =  -0.00053555

 moments of inertia (a.u.)
 ------------------
        4211.053277324798          -0.000000000000          -0.000000000000
          -0.000000000000        1909.479405395695           0.000000000000
          -0.000000000000           0.000000000000        4926.500521388874

  Mulliken analysis of the total density
  --------------------------------------

    Atom       Charge   Shell Charges
 -----------   ------   -------------------------------------------------------
    1 H    1     0.98   0.76  0.23  0.01  0.03 -0.05
    2 C    6     6.17   2.01  0.66  0.18  0.05  2.07  1.04  0.01  0.06  0.09
    3 H    1     0.87   0.76  0.14 -0.00  0.03 -0.05
    4 H    1     0.87   0.76  0.14 -0.00  0.03 -0.06
    5 C    6     5.10   2.01  0.68  0.07 -0.10  1.89  0.34 -0.04  0.24  0.01
    6 O    8     8.80   2.01  0.82  1.00  0.17  2.80  1.86  0.14  0.02 -0.01
    7 N    7     7.58   2.01  0.72  0.82 -0.05  2.45  1.45  0.10  0.05  0.04
    8 H    1     0.98   0.77  0.21 -0.02  0.05 -0.03
    9 C    6     6.63   2.01  0.66  0.09 -0.00  1.99  1.61 -0.10  0.14  0.24
   10 H    1     0.96   0.78  0.13  0.00  0.03  0.01
   11 C    6     5.76   2.01  0.66  0.23  0.31  2.04  0.48 -0.04  0.07  0.01
   12 H    1     0.96   0.77  0.23  0.01  0.03 -0.08
   13 H    1     0.94   0.77  0.21  0.01  0.03 -0.09
   14 H    1     0.91   0.77  0.17  0.03  0.03 -0.08
   15 C    6     4.53   2.01  0.68 -0.05  0.06  1.88  0.11  0.06  0.23 -0.46
   16 O    8     8.88   2.01  0.82  1.03  0.18  2.80  1.88  0.16  0.01 -0.00
   17 N    7     7.32   2.01  0.72  0.84 -0.22  2.45  1.45 -0.01  0.05  0.05
   18 H    1     1.05   0.73  0.34 -0.01  0.06 -0.08
   19 C    6     6.34   2.01  0.66  0.19 -0.01  1.99  1.32 -0.04  0.14  0.10
   20 H    1     1.17   0.78  0.38  0.00  0.03 -0.02
   21 C    6     5.71   2.01  0.66  0.29  0.13  2.04  0.50 -0.02  0.07  0.02
   22 H    1     0.95   0.77  0.22  0.00  0.03 -0.07
   23 H    1     0.94   0.77  0.22  0.00  0.03 -0.09
   24 H    1     0.92   0.77  0.18  0.01  0.03 -0.06
   25 C    6     4.75   2.01  0.68  0.09  0.08  1.89 -0.16  0.04  0.24 -0.11
   26 O    8     8.78   2.01  0.82  1.03  0.17  2.79  1.82  0.13  0.01 -0.01
   27 N    7     7.20   2.01  0.72  0.80 -0.17  2.47  1.25  0.09  0.04 -0.02
   28 H    1     0.91   0.73  0.20 -0.02  0.06 -0.06
   29 H    1     1.02   0.76  0.24 -0.00  0.05 -0.03

       Multipole analysis of the density wrt the origin
       ------------------------------------------------

     L   x y z        total         open         nuclear
     -   - - -        -----         ----         -------
     0   0 0 0     -0.000000      0.000000    108.000000

     1   1 0 0     -0.767220      0.000000      0.000000
     1   0 1 0     -2.569682      0.000000      0.000000
     1   0 0 1      0.658336      0.000000      0.000000

     2   2 0 0    -68.868917      0.000000    743.831505
     2   1 1 0     -4.683752      0.000000     -9.849431
     2   1 0 1      1.218607      0.000000      3.762493
     2   0 2 0    -65.899932      0.000000   1989.654868
     2   0 1 1     -7.648671      0.000000    -40.815323
     2   0 0 2    -59.175244      0.000000    357.655325


 Task  times  cpu:     2352.5s     wall:     2549.3s


                                NWChem Input Module
                                -------------------


 Summary of allocated global arrays
-----------------------------------
  No active global arrays


MA_summarize_allocated_blocks: starting scan ...
MA_summarize_allocated_blocks: scan completed: 0 heap blocks, 0 stack blocks
MA usage statistics:

	allocation statistics:
					      heap	     stack
					      ----	     -----
	current number of blocks	         0	         0
	maximum number of blocks	        16	        14
	current total bytes		         0	         0
	maximum total bytes		    102128	  24147832
	maximum total K-bytes		       103	     24148
	maximum total M-bytes		         1	        25


                                     CITATION
                                     --------
                Please cite the following reference when publishing
                           results obtained with NWChem:

          E. Apra, E. J. Bylaska, W. A. de Jong, N. Govind, K. Kowalski,
       T. P. Straatsma, M. Valiev, H. J. J. van Dam, Y. Alexeev, J. Anchell,
       V. Anisimov, F. W. Aquino, R. Atta-Fynn, J. Autschbach, N. P. Bauman,
     J. C. Becca, D. E. Bernholdt, K. Bhaskaran-Nair, S. Bogatko, P. Borowski,
         J. Boschen, J. Brabec, A. Bruner, E. Cauet, Y. Chen, G. N. Chuev,
      C. J. Cramer, J. Daily, M. J. O. Deegan, T. H. Dunning Jr., M. Dupuis,
   K. G. Dyall, G. I. Fann, S. A. Fischer, A. Fonari, H. Fruchtl, L. Gagliardi,
      J. Garza, N. Gawande, S. Ghosh, K. Glaesemann, A. W. Gotz, J. Hammond,
       V. Helms, E. D. Hermes, K. Hirao, S. Hirata, M. Jacquelin, L. Jensen,
   B. G. Johnson, H. Jonsson, R. A. Kendall, M. Klemm, R. Kobayashi, V. Konkov,
      S. Krishnamoorthy, M. Krishnan, Z. Lin, R. D. Lins, R. J. Littlefield,
      A. J. Logsdail, K. Lopata, W. Ma, A. V. Marenich, J. Martin del Campo,
   D. Mejia-Rodriguez, J. E. Moore, J. M. Mullin, T. Nakajima, D. R. Nascimento,
    J. A. Nichols, P. J. Nichols, J. Nieplocha, A. Otero-de-la-Roza, B. Palmer,
    A. Panyala, T. Pirojsirikul, B. Peng, R. Peverati, J. Pittner, L. Pollack,
   R. M. Richard, P. Sadayappan, G. C. Schatz, W. A. Shelton, D. W. Silverstein,
   D. M. A. Smith, T. A. Soares, D. Song, M. Swart, H. L. Taylor, G. S. Thomas,
            V. Tipparaju, D. G. Truhlar, K. Tsemekhman, T. Van Voorhis,
      A. Vazquez-Mayagoitia, P. Verma, O. Villa, A. Vishnu, K. D. Vogiatzis,
        D. Wang, J. H. Weare, M. J. Williamson, T. L. Windus, K. Wolinski,
        A. T. Wong, Q. Wu, C. Yang, Q. Yu, M. Zacharias, Z. Zhang, Y. Zhao,
                                and R. J. Harrison
                        "NWChem: Past, present, and future
                         J. Chem. Phys. 152, 184102 (2020)
                               doi:10.1063/5.0004997

                                      AUTHORS
                                      -------
  E. Apra, E. J. Bylaska, N. Govind, K. Kowalski, M. Valiev, D. Mejia-Rodriguez,
       A. Kunitsa, N. P. Bauman, A. Panyala, W. A. de Jong, T. P. Straatsma,
   H. J. J. van Dam, D. Wang, T. L. Windus, J. Hammond, J. Autschbach, A. Woods,
    K. Bhaskaran-Nair, J. Brabec, K. Lopata, S. A. Fischer, S. Krishnamoorthy,
     M. Jacquelin, W. Ma, M. Klemm, O. Villa, Y. Chen, V. Anisimov, F. Aquino,
     S. Hirata, M. T. Hackler, E. Hermes, L. Jensen, J. E. Moore, J. C. Becca,
      V. Konjkov, T. Risthaus, M. Malagoli, A. Marenich, A. Otero-de-la-Roza,
        J. Mullin, P. Nichols, R. Peverati, J. Pittner, Y. Zhao, P.-D. Fan,
        A. Fonari, M. J. Williamson, R. J. Harrison, J. R. Rehr, M. Dupuis,
     D. Silverstein, D. M. A. Smith, J. Nieplocha, V. Tipparaju, M. Krishnan,
     B. E. Van Kuiken, A. Vazquez-Mayagoitia, M. Swart, Q. Wu, T. Van Voorhis,
     A. A. Auer, M. Nooijen, L. D. Crosby, E. Brown, G. Cisneros, G. I. Fann,
   H. Fruchtl, J. Garza, K. Hirao, R. A. Kendall, J. A. Nichols, K. Tsemekhman,
    K. Wolinski, J. Anchell, D. E. Bernholdt, P. Borowski, T. Clark, D. Clerc,
   H. Dachsel, M. J. O. Deegan, K. Dyall, D. Elwood, E. Glendening, M. Gutowski,
   A. C. Hess, J. Jaffe, B. G. Johnson, J. Ju, R. Kobayashi, R. Kutteh, Z. Lin,
   R. Littlefield, X. Long, B. Meng, T. Nakajima, S. Niu, L. Pollack, M. Rosing,
   K. Glaesemann, G. Sandrone, M. Stave, H. Taylor, G. Thomas, J. H. van Lenthe,
                               A. T. Wong, Z. Zhang.

 Total times  cpu:     2352.5s     wall:     2549.5s
