export TMOUT=5400
export TMPDIR=/tmp
export PTMPDIR=/tmp/ptmp
 argument  1 = ALA_GLY_0.nw
                                         
                                         


             Northwest Computational Chemistry Package (NWChem) 7.2.0
             --------------------------------------------------------


                    Environmental Molecular Sciences Laboratory
                       Pacific Northwest National Laboratory
                                Richland, WA 99352

                              Copyright (c) 1994-2022
                       Pacific Northwest National Laboratory
                            Battelle Memorial Institute

             NWChem is an open-source computational chemistry package
                        distributed under the terms of the
                      Educational Community License (ECL) 2.0
             A copy of the license is included with this distribution
                              in the LICENSE.TXT file

                                  ACKNOWLEDGMENT
                                  --------------

            This software and its documentation were developed at the
            EMSL at Pacific Northwest National Laboratory, a multiprogram
            national laboratory, operated for the U.S. Department of Energy
            by Battelle under Contract Number DE-AC05-76RL01830. Support
            for this work was provided by the Department of Energy Office
            of Biological and Environmental Research, Office of Basic
            Energy Sciences, and the Office of Advanced Scientific Computing.


           Job information
           ---------------

    hostname        = nova18-18
    program         = /opt/rit/el9/20230413/app/linux-rhel9-x86_64_v3/gcc-11.2.1/nwchem-7.2.0-oxtctbuhfuzyfaoziquq6bki22grib3g/bin/nwchem
    date            = Thu Jun 26 14:30:30 2025

    compiled        = Wed_May_17_23:46:39_2023
    source          = /tmp/root/spack-stage/spack-stage-nwchem-7.2.0-oxtctbuhfuzyfaoziquq6bki22grib3g/spack-src
    nwchem branch   = 7.2.0
    nwchem revision = d0d141fd
    ga revision     = 5.8.0
    use scalapack   = T
    input           = ALA_GLY_0.nw
    prefix          = ALA_GLY_0.
    data base       = ./ALA_GLY_0.db
    status          = startup
    nproc           =        8
    time left       =     -1s



           Memory information
           ------------------

    heap     =   26214400 doubles =    200.0 Mbytes
    stack    =   26214397 doubles =    200.0 Mbytes
    global   =   52428800 doubles =    400.0 Mbytes (distinct from heap & stack)
    total    =  104857597 doubles =    800.0 Mbytes
    verify   = yes
    hardfail = no 


           Directory information
           ---------------------

  0 permanent = .
  0 scratch   = .




                                NWChem Input Module
                                -------------------



 Scaling coordinates for geometry "geometry" by  1.889725989
 (inverse scale =  0.529177249)

 C1  symmetry detected

          ------
          auto-z
          ------
  no constraints, skipping    0.0000000000000000     
  no constraints, skipping    0.0000000000000000     


                             Geometry "geometry" -> ""
                             -------------------------

 Output coordinates in angstroms (scale by  1.889725989 to convert to a.u.)

  No.       Tag          Charge          X              Y              Z
 ---- ---------------- ---------- -------------- -------------- --------------
    1 H                    1.0000     2.29669465     3.73525713    -0.21281226
    2 C                    6.0000     2.37647543     2.69927347    -0.53422304
    3 H                    1.0000     3.34835188     2.30044795    -0.24553397
    4 H                    1.0000     2.26348792     2.63445856    -1.61509854
    5 C                    6.0000     1.29403991     1.88109517     0.12887169
    6 O                    8.0000     1.58648439     0.93014449     0.84466847
    7 N                    7.0000     0.03450267     2.24386024    -0.11042194
    8 H                    1.0000    -0.13838021     3.00436102    -0.74510852
    9 C                    6.0000    -1.11232055     1.49749436     0.40457756
   10 H                    1.0000    -1.02676272     1.44157242     1.49067083
   11 C                    6.0000    -2.39781132     2.26457487     0.06636760
   12 H                    1.0000    -2.36239261     3.26341217     0.50410217
   13 H                    1.0000    -2.50847639     2.34590391    -1.01610542
   14 H                    1.0000    -3.25878123     1.73108256     0.46935490
   15 C                    6.0000    -1.12947439     0.06137339    -0.15643874
   16 O                    8.0000    -1.15633323    -0.13506743    -1.36833132
   17 N                    7.0000    -1.09861689    -0.93922069     0.73049773
   18 H                    1.0000    -1.04180236    -0.70520166     1.70852595
   19 C                    6.0000    -0.98977661    -2.35620619     0.35736521
   20 H                    1.0000    -1.32703114    -2.96959071     1.19260757
   21 H                    1.0000    -1.64489517    -2.55335628    -0.49318374
   22 C                    6.0000     0.42374833    -2.82509078    -0.02749775
   23 O                    8.0000     0.61339742    -3.99508824    -0.33084601
   24 N                    7.0000     1.43812990    -1.96934499     0.00186499
   25 H                    1.0000     2.35067254    -2.30633683    -0.25352966
   26 H                    1.0000     1.29353161    -1.00406849     0.26446090

      Atomic Mass 
      ----------- 

      H                  1.007825
      C                 12.000000
      O                 15.994910
      N                 14.003070


 Effective nuclear repulsion energy (a.u.)     849.8094557531

            Nuclear Dipole moment (a.u.) 
            ----------------------------
        X                 Y               Z
 ---------------- ---------------- ----------------
    -0.0000000000     0.0000000000     0.0000000000



                                Z-matrix (autoz)
                                -------- 

 Units are Angstrom for bonds and degrees for angles

      Type          Name      I     J     K     L     M      Value
      ----------- --------  ----- ----- ----- ----- ----- ----------
    1 Stretch                  1     2                       1.08763
    2 Stretch                  2     3                       1.08947
    3 Stretch                  2     4                       1.08870
    4 Stretch                  2     5                       1.51022
    5 Stretch                  5     6                       1.22564
    6 Stretch                  5     7                       1.33240
    7 Stretch                  7     8                       1.00552
    8 Stretch                  7     9                       1.46202
    9 Stretch                  9    10                       1.09089
   10 Stretch                  9    11                       1.53469
   11 Stretch                  9    15                       1.54191
   12 Stretch                 11    12                       1.09112
   13 Stretch                 11    13                       1.09115
   14 Stretch                 11    14                       1.09008
   15 Stretch                 15    16                       1.22800
   16 Stretch                 15    17                       1.33746
   17 Stretch                 17    18                       1.00724
   18 Stretch                 17    19                       1.46933
   19 Stretch                 19    20                       1.08978
   20 Stretch                 19    21                       1.09155
   21 Stretch                 19    22                       1.53819
   22 Stretch                 22    23                       1.22347
   23 Stretch                 22    24                       1.32745
   24 Stretch                 24    25                       1.00575
   25 Stretch                 24    26                       1.01075
   26 Bend                     1     2     3               109.62242
   27 Bend                     1     2     4               110.02851
   28 Bend                     1     2     5               109.49401
   29 Bend                     2     5     6               120.38102
   30 Bend                     2     5     7               116.81978
   31 Bend                     3     2     4               109.50347
   32 Bend                     3     2     5               108.94782
   33 Bend                     4     2     5               109.22497
   34 Bend                     5     7     8               118.80377
   35 Bend                     5     7     9               122.63331
   36 Bend                     6     5     7               122.79864
   37 Bend                     7     9    10               108.38209
   38 Bend                     7     9    11               108.92001
   39 Bend                     7     9    15               110.85727
   40 Bend                     8     7     9               118.26708
   41 Bend                     9    11    12               109.99590
   42 Bend                     9    11    13               109.92746
   43 Bend                     9    11    14               109.60186
   44 Bend                     9    15    16               120.55119
   45 Bend                     9    15    17               117.08181
   46 Bend                    10     9    11               108.10281
   47 Bend                    10     9    15               108.38328
   48 Bend                    11     9    15               112.08818
   49 Bend                    12    11    13               109.45399
   50 Bend                    12    11    14               108.98627
   51 Bend                    13    11    14               108.85164
   52 Bend                    15    17    18               118.12527
   53 Bend                    15    17    19               123.69580
   54 Bend                    16    15    17               122.36275
   55 Bend                    17    19    20               108.98041
   56 Bend                    17    19    21               109.12331
   57 Bend                    17    19    22               115.18742
   58 Bend                    18    17    19               117.80509
   59 Bend                    19    22    23               119.73494
   60 Bend                    19    22    24               120.01198
   61 Bend                    20    19    21               108.04834
   62 Bend                    20    19    22               107.73302
   63 Bend                    21    19    22               107.54841
   64 Bend                    22    24    25               118.14619
   65 Bend                    22    24    26               120.80204
   66 Bend                    23    22    24               120.23249
   67 Bend                    25    24    26               121.04868
   68 Torsion                  1     2     5     6        -120.69957
   69 Torsion                  1     2     5     7          59.56394
   70 Torsion                  2     5     7     8           2.85723
   71 Torsion                  2     5     7     9         176.49753
   72 Torsion                  3     2     5     6          -0.81978
   73 Torsion                  3     2     5     7         179.44373
   74 Torsion                  4     2     5     6         118.75503
   75 Torsion                  4     2     5     7         -60.98146
   76 Torsion                  5     7     9    10          56.85443
   77 Torsion                  5     7     9    11         174.24382
   78 Torsion                  5     7     9    15         -61.97778
   79 Torsion                  6     5     7     8        -176.87233
   80 Torsion                  6     5     7     9          -3.23203
   81 Torsion                  7     9    11    12         -58.66021
   82 Torsion                  7     9    11    13          61.93108
   83 Torsion                  7     9    11    14        -178.46848
   84 Torsion                  7     9    15    16         -57.71911
   85 Torsion                  7     9    15    17         121.54893
   86 Torsion                  8     7     9    10        -129.47282
   87 Torsion                  8     7     9    11         -12.08344
   88 Torsion                  8     7     9    15         111.69496
   89 Torsion                  9    15    17    18          -1.56772
   90 Torsion                  9    15    17    19        -174.38296
   91 Torsion                 10     9    11    12          58.90617
   92 Torsion                 10     9    11    13         179.49746
   93 Torsion                 10     9    11    14         -60.90210
   94 Torsion                 10     9    15    16        -176.55061
   95 Torsion                 10     9    15    17           2.71743
   96 Torsion                 11     9    15    16          64.22485
   97 Torsion                 11     9    15    17        -116.50711
   98 Torsion                 12    11     9    15         178.29541
   99 Torsion                 13    11     9    15         -61.11330
  100 Torsion                 14    11     9    15          58.48714
  101 Torsion                 15    17    19    20        -160.53006
  102 Torsion                 15    17    19    21         -42.75333
  103 Torsion                 15    17    19    22          78.29233
  104 Torsion                 16    15    17    18         177.68602
  105 Torsion                 16    15    17    19           4.87078
  106 Torsion                 17    19    22    23         178.78110
  107 Torsion                 17    19    22    24           0.42718
  108 Torsion                 18    17    19    20          26.63330
  109 Torsion                 18    17    19    21         144.41003
  110 Torsion                 18    17    19    22         -94.54431
  111 Torsion                 19    22    24    25         179.88590
  112 Torsion                 19    22    24    26          -0.74649
  113 Torsion                 20    19    22    23          56.92844
  114 Torsion                 20    19    22    24        -121.42548
  115 Torsion                 21    19    22    23         -59.32054
  116 Torsion                 21    19    22    24         122.32554
  117 Torsion                 23    22    24    25           1.54025
  118 Torsion                 23    22    24    26        -179.09214


            XYZ format geometry
            -------------------
    26
 geometry
 H                     2.29669465     3.73525713    -0.21281226
 C                     2.37647543     2.69927347    -0.53422304
 H                     3.34835188     2.30044795    -0.24553397
 H                     2.26348792     2.63445856    -1.61509854
 C                     1.29403991     1.88109517     0.12887169
 O                     1.58648439     0.93014449     0.84466847
 N                     0.03450267     2.24386024    -0.11042194
 H                    -0.13838021     3.00436102    -0.74510852
 C                    -1.11232055     1.49749436     0.40457756
 H                    -1.02676272     1.44157242     1.49067083
 C                    -2.39781132     2.26457487     0.06636760
 H                    -2.36239261     3.26341217     0.50410217
 H                    -2.50847639     2.34590391    -1.01610542
 H                    -3.25878123     1.73108256     0.46935490
 C                    -1.12947439     0.06137339    -0.15643874
 O                    -1.15633323    -0.13506743    -1.36833132
 N                    -1.09861689    -0.93922069     0.73049773
 H                    -1.04180236    -0.70520166     1.70852595
 C                    -0.98977661    -2.35620619     0.35736521
 H                    -1.32703114    -2.96959071     1.19260757
 H                    -1.64489517    -2.55335628    -0.49318374
 C                     0.42374833    -2.82509078    -0.02749775
 O                     0.61339742    -3.99508824    -0.33084601
 N                     1.43812990    -1.96934499     0.00186499
 H                     2.35067254    -2.30633683    -0.25352966
 H                     1.29353161    -1.00406849     0.26446090

 ==============================================================================
                                internuclear distances
 ------------------------------------------------------------------------------
       center one      |      center two      | atomic units |  angstroms
 ------------------------------------------------------------------------------
    2 C                |   1 H                |     2.05532  |     1.08763
    3 H                |   2 C                |     2.05880  |     1.08947
    4 H                |   2 C                |     2.05734  |     1.08870
    5 C                |   2 C                |     2.85391  |     1.51022
    6 O                |   5 C                |     2.31613  |     1.22564
    7 N                |   5 C                |     2.51787  |     1.33240
    8 H                |   7 N                |     1.90016  |     1.00552
    9 C                |   7 N                |     2.76281  |     1.46202
   10 H                |   9 C                |     2.06149  |     1.09089
   11 C                |   9 C                |     2.90015  |     1.53469
   12 H                |  11 C                |     2.06192  |     1.09112
   13 H                |  11 C                |     2.06198  |     1.09115
   14 H                |  11 C                |     2.05996  |     1.09008
   15 C                |   9 C                |     2.91378  |     1.54191
   16 O                |  15 C                |     2.32059  |     1.22800
   17 N                |  15 C                |     2.52743  |     1.33746
   18 H                |  17 N                |     1.90341  |     1.00724
   19 C                |  17 N                |     2.77663  |     1.46933
   20 H                |  19 C                |     2.05938  |     1.08978
   21 H                |  19 C                |     2.06273  |     1.09155
   22 C                |  19 C                |     2.90676  |     1.53819
   23 O                |  22 C                |     2.31202  |     1.22347
   24 N                |  22 C                |     2.50852  |     1.32745
   25 H                |  24 N                |     1.90058  |     1.00575
   26 H                |  24 N                |     1.91005  |     1.01075
 ------------------------------------------------------------------------------
                         number of included internuclear distances:         25
 ==============================================================================



 ==============================================================================
                                 internuclear angles
 ------------------------------------------------------------------------------
        center 1       |       center 2       |       center 3       |  degrees
 ------------------------------------------------------------------------------
    1 H                |   2 C                |   3 H                |   109.62
    1 H                |   2 C                |   4 H                |   110.03
    1 H                |   2 C                |   5 C                |   109.49
    3 H                |   2 C                |   4 H                |   109.50
    3 H                |   2 C                |   5 C                |   108.95
    4 H                |   2 C                |   5 C                |   109.22
    2 C                |   5 C                |   6 O                |   120.38
    2 C                |   5 C                |   7 N                |   116.82
    6 O                |   5 C                |   7 N                |   122.80
    5 C                |   7 N                |   8 H                |   118.80
    5 C                |   7 N                |   9 C                |   122.63
    8 H                |   7 N                |   9 C                |   118.27
    7 N                |   9 C                |  10 H                |   108.38
    7 N                |   9 C                |  11 C                |   108.92
    7 N                |   9 C                |  15 C                |   110.86
   10 H                |   9 C                |  11 C                |   108.10
   10 H                |   9 C                |  15 C                |   108.38
   11 C                |   9 C                |  15 C                |   112.09
    9 C                |  11 C                |  12 H                |   110.00
    9 C                |  11 C                |  13 H                |   109.93
    9 C                |  11 C                |  14 H                |   109.60
   12 H                |  11 C                |  13 H                |   109.45
   12 H                |  11 C                |  14 H                |   108.99
   13 H                |  11 C                |  14 H                |   108.85
    9 C                |  15 C                |  16 O                |   120.55
    9 C                |  15 C                |  17 N                |   117.08
   16 O                |  15 C                |  17 N                |   122.36
   15 C                |  17 N                |  18 H                |   118.13
   15 C                |  17 N                |  19 C                |   123.70
   18 H                |  17 N                |  19 C                |   117.81
   17 N                |  19 C                |  20 H                |   108.98
   17 N                |  19 C                |  21 H                |   109.12
   17 N                |  19 C                |  22 C                |   115.19
   20 H                |  19 C                |  21 H                |   108.05
   20 H                |  19 C                |  22 C                |   107.73
   21 H                |  19 C                |  22 C                |   107.55
   19 C                |  22 C                |  23 O                |   119.73
   19 C                |  22 C                |  24 N                |   120.01
   23 O                |  22 C                |  24 N                |   120.23
   22 C                |  24 N                |  25 H                |   118.15
   22 C                |  24 N                |  26 H                |   120.80
   25 H                |  24 N                |  26 H                |   121.05
 ------------------------------------------------------------------------------
                            number of included internuclear angles:         42
 ==============================================================================



  library name resolved from: environment
  library file name is: </opt/rit/el9/20230413/app/linux-rhel9-x86_64_v3/gcc-11.2.1/nwchem-7.2.0-oxtctbuhfuzyfaoziquq6bki22grib3g/share/nwchem/libraries/>
  


 Summary of "ao basis" -> "" (cartesian)
 ------------------------------------------------------------------------------
       Tag                 Description            Shells   Functions and Types
 ---------------- ------------------------------  ------  ---------------------
 *                        aug-cc-pvdz                 on all atoms 


                      Basis "ao basis" -> "ao basis" (cartesian)
                      -----
  H (Hydrogen)
  ------------
            Exponent  Coefficients 
       -------------- ---------------------------------------------------------
  1 S  1.30100000E+01  0.019685
  1 S  1.96200000E+00  0.137977
  1 S  4.44600000E-01  0.478148

  2 S  1.22000000E-01  1.000000

  3 S  2.97400000E-02  1.000000

  4 P  7.27000000E-01  1.000000

  5 P  1.41000000E-01  1.000000

  C (Carbon)
  ----------
            Exponent  Coefficients 
       -------------- ---------------------------------------------------------
  1 S  6.66500000E+03  0.000692
  1 S  1.00000000E+03  0.005329
  1 S  2.28000000E+02  0.027077
  1 S  6.47100000E+01  0.101718
  1 S  2.10600000E+01  0.274740
  1 S  7.49500000E+00  0.448564
  1 S  2.79700000E+00  0.285074
  1 S  5.21500000E-01  0.015204

  2 S  6.66500000E+03 -0.000146
  2 S  1.00000000E+03 -0.001154
  2 S  2.28000000E+02 -0.005725
  2 S  6.47100000E+01 -0.023312
  2 S  2.10600000E+01 -0.063955
  2 S  7.49500000E+00 -0.149981
  2 S  2.79700000E+00 -0.127262
  2 S  5.21500000E-01  0.544529

  3 S  1.59600000E-01  1.000000

  4 S  4.69000000E-02  1.000000

  5 P  9.43900000E+00  0.038109
  5 P  2.00200000E+00  0.209480
  5 P  5.45600000E-01  0.508557

  6 P  1.51700000E-01  1.000000

  7 P  4.04100000E-02  1.000000

  8 D  5.50000000E-01  1.000000

  9 D  1.51000000E-01  1.000000

  O (Oxygen)
  ----------
            Exponent  Coefficients 
       -------------- ---------------------------------------------------------
  1 S  1.17200000E+04  0.000710
  1 S  1.75900000E+03  0.005470
  1 S  4.00800000E+02  0.027837
  1 S  1.13700000E+02  0.104800
  1 S  3.70300000E+01  0.283062
  1 S  1.32700000E+01  0.448719
  1 S  5.02500000E+00  0.270952
  1 S  1.01300000E+00  0.015458

  2 S  1.17200000E+04 -0.000160
  2 S  1.75900000E+03 -0.001263
  2 S  4.00800000E+02 -0.006267
  2 S  1.13700000E+02 -0.025716
  2 S  3.70300000E+01 -0.070924
  2 S  1.32700000E+01 -0.165411
  2 S  5.02500000E+00 -0.116955
  2 S  1.01300000E+00  0.557368

  3 S  3.02300000E-01  1.000000

  4 S  7.89600000E-02  1.000000

  5 P  1.77000000E+01  0.043018
  5 P  3.85400000E+00  0.228913
  5 P  1.04600000E+00  0.508728

  6 P  2.75300000E-01  1.000000

  7 P  6.85600000E-02  1.000000

  8 D  1.18500000E+00  1.000000

  9 D  3.32000000E-01  1.000000

  N (Nitrogen)
  ------------
            Exponent  Coefficients 
       -------------- ---------------------------------------------------------
  1 S  9.04600000E+03  0.000700
  1 S  1.35700000E+03  0.005389
  1 S  3.09300000E+02  0.027406
  1 S  8.77300000E+01  0.103207
  1 S  2.85600000E+01  0.278723
  1 S  1.02100000E+01  0.448540
  1 S  3.83800000E+00  0.278238
  1 S  7.46600000E-01  0.015440

  2 S  9.04600000E+03 -0.000153
  2 S  1.35700000E+03 -0.001208
  2 S  3.09300000E+02 -0.005992
  2 S  8.77300000E+01 -0.024544
  2 S  2.85600000E+01 -0.067459
  2 S  1.02100000E+01 -0.158078
  2 S  3.83800000E+00 -0.121831
  2 S  7.46600000E-01  0.549003

  3 S  2.24800000E-01  1.000000

  4 S  6.12400000E-02  1.000000

  5 P  1.35500000E+01  0.039919
  5 P  2.91700000E+00  0.217169
  5 P  7.97300000E-01  0.510319

  6 P  2.18500000E-01  1.000000

  7 P  5.61100000E-02  1.000000

  8 D  8.17000000E-01  1.000000

  9 D  2.30000000E-01  1.000000



 Summary of "ao basis" -> "ao basis" (cartesian)
 ------------------------------------------------------------------------------
       Tag                 Description            Shells   Functions and Types
 ---------------- ------------------------------  ------  ---------------------
 H                        aug-cc-pvdz                5        9   3s2p
 C                        aug-cc-pvdz                9       25   4s3p2d
 O                        aug-cc-pvdz                9       25   4s3p2d
 N                        aug-cc-pvdz                9       25   4s3p2d


                                 NWChem SCF Module
                                 -----------------



  ao basis        = "ao basis"
  functions       =   442
  atoms           =    26
  closed shells   =    50
  open shells     =     0
  charge          =   0.00
  wavefunction    = RHF 
  input vectors   = atomic
  output vectors  = ./ALA_GLY_0.movecs
  use symmetry    = F
  symmetry adapt  = F


 Summary of "ao basis" -> "ao basis" (cartesian)
 ------------------------------------------------------------------------------
       Tag                 Description            Shells   Functions and Types
 ---------------- ------------------------------  ------  ---------------------
 H                        aug-cc-pvdz                5        9   3s2p
 C                        aug-cc-pvdz                9       25   4s3p2d
 O                        aug-cc-pvdz                9       25   4s3p2d
 N                        aug-cc-pvdz                9       25   4s3p2d



 Forming initial guess at       1.5s


 !! The overlap matrix has   1 vectors deemed linearly dependent with
    eigenvalues:
 4.54D-06


      Superposition of Atomic Density Guess
      -------------------------------------

 Sum of atomic energies:        -657.36908239

      Non-variational initial energy
      ------------------------------

 Total energy =    -665.525733
 1-e energy   =   -2580.945042
 2-e energy   =    1065.609853
 HOMO         =      -0.312460
 LUMO         =       0.015054


 Starting SCF solution at     113.2s



 ----------------------------------------------
         Quadratically convergent ROHF

 Convergence threshold     :          1.000E-04
 Maximum no. of iterations :           30
 Final Fock-matrix accuracy:          1.000E-10
 ----------------------------------------------


              iter       energy          gnorm     gmax       time
             ----- ------------------- --------- --------- --------
                 1     -660.4128231341  2.31D+00  1.68D-01    219.4
                 2     -660.6950351740  7.47D-01  4.60D-02    452.0
                 3     -660.7441461700  6.20D-02  4.01D-03    869.2
                 4     -660.7447457198  1.51D-03  8.54D-05   1414.3
                 5     -660.7447460358  3.91D-06  3.06D-07   2167.9


       Final RHF  results 
       ------------------ 

         Total SCF energy =   -660.744746035755
      One-electron energy =  -2590.104062805276
      Two-electron energy =   1079.549861016446
 Nuclear repulsion energy =    849.809455753075

        Time for solution =   2060.2s


             Final eigenvalues
             -----------------

              1      
    1  -20.5483
    2  -20.5369
    3  -20.5046
    4  -15.6200
    5  -15.6132
    6  -15.5706
    7  -11.3770
    8  -11.3684
    9  -11.3432
   10  -11.3155
   11  -11.2916
   12  -11.2598
   13  -11.2576
   14   -1.4126
   15   -1.3943
   16   -1.3681
   17   -1.2677
   18   -1.2527
   19   -1.1965
   20   -1.0802
   21   -1.0121
   22   -0.9969
   23   -0.9025
   24   -0.8340
   25   -0.8089
   26   -0.7868
   27   -0.7418
   28   -0.7296
   29   -0.7026
   30   -0.6929
   31   -0.6694
   32   -0.6403
   33   -0.6263
   34   -0.6148
   35   -0.6014
   36   -0.5990
   37   -0.5942
   38   -0.5889
   39   -0.5695
   40   -0.5576
   41   -0.5497
   42   -0.5386
   43   -0.5243
   44   -0.5172
   45   -0.4494
   46   -0.4473
   47   -0.4374
   48   -0.4111
   49   -0.3919
   50   -0.3868
   51    0.0208
   52    0.0305
   53    0.0375
   54    0.0428
   55    0.0505
   56    0.0550
   57    0.0594
   58    0.0679
   59    0.0687
   60    0.0734

                       ROHF Final Molecular Orbital Analysis
                       -------------------------------------

 Vector   14  Occ=2.000000D+00  E=-1.412621D+00
              MO Center=  1.1D+00,  1.2D+00,  4.1D-01, r^2= 1.8D+00
   Bfn.  Coefficient  Atom+Function         Bfn.  Coefficient  Atom+Function  
  ----- ------------  ---------------      ----- ------------  ---------------
    80      0.338229   6 O  s                79      0.329601   6 O  s         
    54      0.232564   5 C  s                12      0.185197   2 C  s         

 Vector   15  Occ=2.000000D+00  E=-1.394261D+00
              MO Center= -8.5D-01, -7.6D-02, -6.2D-01, r^2= 2.1D+00
   Bfn.  Coefficient  Atom+Function         Bfn.  Coefficient  Atom+Function  
  ----- ------------  ---------------      ----- ------------  ---------------
   250      0.351057  16 O  s               249      0.328362  16 O  s         
   224      0.233877  15 C  s         

 Vector   16  Occ=2.000000D+00  E=-1.368129D+00
              MO Center=  5.9D-01, -3.4D+00, -2.2D-01, r^2= 1.1D+00
   Bfn.  Coefficient  Atom+Function         Bfn.  Coefficient  Atom+Function  
  ----- ------------  ---------------      ----- ------------  ---------------
   377      0.373963  23 O  s               376      0.349744  23 O  s         
   351      0.245621  22 C  s         

 Vector   17  Occ=2.000000D+00  E=-1.267709D+00
              MO Center=  1.9D-01,  1.9D+00,  3.8D-02, r^2= 1.7D+00
   Bfn.  Coefficient  Atom+Function         Bfn.  Coefficient  Atom+Function  
  ----- ------------  ---------------      ----- ------------  ---------------
   105      0.424680   7 N  s               104      0.343904   7 N  s         
    80     -0.217119   6 O  s                79     -0.182025   6 O  s         
   128      0.157280   8 H  s         

 Vector   18  Occ=2.000000D+00  E=-1.252670D+00
              MO Center= -9.7D-01, -9.0D-01,  3.4D-01, r^2= 1.9D+00
   Bfn.  Coefficient  Atom+Function         Bfn.  Coefficient  Atom+Function  
  ----- ------------  ---------------      ----- ------------  ---------------
   274      0.342815  17 N  s               275      0.328064  17 N  s         
   250     -0.218567  16 O  s               229      0.180372  15 C  pz        
   249     -0.179982  16 O  s               298      0.158294  18 H  s         

 Vector   19  Occ=2.000000D+00  E=-1.196506D+00
              MO Center=  1.1D+00, -2.2D+00, -9.9D-03, r^2= 1.6D+00
   Bfn.  Coefficient  Atom+Function         Bfn.  Coefficient  Atom+Function  
  ----- ------------  ---------------      ----- ------------  ---------------
   402      0.377062  24 N  s               401      0.368219  24 N  s         
   377     -0.211893  23 O  s               355      0.188223  22 C  py        
   376     -0.174139  23 O  s               309     -0.165758  19 C  s         
   434      0.161936  26 H  s               425      0.158120  25 H  s         

 Vector   20  Occ=2.000000D+00  E=-1.080189D+00
              MO Center= -6.7D-01,  1.7D+00,  1.1D-01, r^2= 4.4D+00
   Bfn.  Coefficient  Atom+Function         Bfn.  Coefficient  Atom+Function  
  ----- ------------  ---------------      ----- ------------  ---------------
   138      0.243008   9 C  s               172      0.207624  11 C  s         
    12     -0.177601   2 C  s                56      0.153224   5 C  s         
   144     -0.153640   9 C  px        

 Vector   21  Occ=2.000000D+00  E=-1.012140D+00
              MO Center=  1.3D+00,  1.9D+00, -2.6D-01, r^2= 6.2D+00
   Bfn.  Coefficient  Atom+Function         Bfn.  Coefficient  Atom+Function  
  ----- ------------  ---------------      ----- ------------  ---------------
    11      0.314500   2 C  s                56     -0.195143   5 C  s         
    13      0.156034   2 C  s         

 Vector   22  Occ=2.000000D+00  E=-9.969253D-01
              MO Center= -9.4D-01, -9.2D-01,  2.5D-01, r^2= 6.3D+00
   Bfn.  Coefficient  Atom+Function         Bfn.  Coefficient  Atom+Function  
  ----- ------------  ---------------      ----- ------------  ---------------
   308      0.287396  19 C  s               139     -0.235552   9 C  s         
   145      0.226612   9 C  py              225      0.210120  15 C  s         
   278     -0.176748  17 N  py              309      0.173445  19 C  s         
   172      0.171131  11 C  s               231      0.168535  15 C  py        
   353     -0.156404  22 C  s         

 Vector   23  Occ=2.000000D+00  E=-9.025393D-01
              MO Center= -1.2D+00,  1.3D+00,  1.2D-01, r^2= 5.7D+00
   Bfn.  Coefficient  Atom+Function         Bfn.  Coefficient  Atom+Function  
  ----- ------------  ---------------      ----- ------------  ---------------
   145     -0.297054   9 C  py              139      0.294314   9 C  s         
   172     -0.232409  11 C  s               231     -0.222141  15 C  py        
   138      0.200731   9 C  s               225     -0.200984  15 C  s         
   309      0.178744  19 C  s               160      0.153729   9 C  dyz       

 Vector   24  Occ=2.000000D+00  E=-8.339651D-01
              MO Center=  1.0D-01,  1.2D+00,  5.0D-02, r^2= 5.5D+00
   Bfn.  Coefficient  Atom+Function         Bfn.  Coefficient  Atom+Function  
  ----- ------------  ---------------      ----- ------------  ---------------
   107      0.274857   7 N  px               54      0.193521   5 C  s         
   128     -0.193976   8 H  s               309      0.178240  19 C  s         
   139      0.169950   9 C  s                12      0.162299   2 C  s         
    60     -0.152561   5 C  px               80     -0.150413   6 O  s         

 Vector   25  Occ=2.000000D+00  E=-8.088959D-01
              MO Center= -4.6D-01,  5.7D-02,  2.7D-01, r^2= 5.2D+00
   Bfn.  Coefficient  Atom+Function         Bfn.  Coefficient  Atom+Function  
  ----- ------------  ---------------      ----- ------------  ---------------
   279      0.261598  17 N  pz              298      0.212783  18 H  s         
   128     -0.204852   8 H  s               225     -0.161000  15 C  s         
    56     -0.155145   5 C  s         

 Vector   26  Occ=2.000000D+00  E=-7.868221D-01
              MO Center=  4.0D-01, -1.9D+00,  1.4D-01, r^2= 3.5D+00
   Bfn.  Coefficient  Atom+Function         Bfn.  Coefficient  Atom+Function  
  ----- ------------  ---------------      ----- ------------  ---------------
   357      0.303074  22 C  px              404     -0.259324  24 N  px        
   314      0.222800  19 C  px              351      0.216294  22 C  s         
   425     -0.190481  25 H  s               405     -0.188004  24 N  py        
   279      0.180931  17 N  pz              298      0.177507  18 H  s         
   377     -0.171962  23 O  s               369     -0.163333  22 C  dxx       

 Vector   27  Occ=2.000000D+00  E=-7.417961D-01
              MO Center= -5.1D-01,  3.5D-01,  1.6D-01, r^2= 5.2D+00
   Bfn.  Coefficient  Atom+Function         Bfn.  Coefficient  Atom+Function  
  ----- ------------  ---------------      ----- ------------  ---------------
   225      0.337823  15 C  s               145      0.291636   9 C  py        
   228     -0.218636  15 C  py              279     -0.188649  17 N  pz        
   142      0.187007   9 C  py              109      0.184630   7 N  pz        
    55      0.174189   5 C  s         

 Vector   28  Occ=2.000000D+00  E=-7.296402D-01
              MO Center=  7.6D-01, -9.7D-01,  7.6D-02, r^2= 5.6D+00
   Bfn.  Coefficient  Atom+Function         Bfn.  Coefficient  Atom+Function  
  ----- ------------  ---------------      ----- ------------  ---------------
   405      0.287062  24 N  py              434      0.263692  26 H  s         
   435      0.223345  26 H  s               425     -0.196410  25 H  s         

 Vector   29  Occ=2.000000D+00  E=-7.026306D-01
              MO Center= -3.9D-01,  1.3D+00,  4.3D-02, r^2= 5.3D+00
   Bfn.  Coefficient  Atom+Function         Bfn.  Coefficient  Atom+Function  
  ----- ------------  ---------------      ----- ------------  ---------------
   139      0.255102   9 C  s               143      0.230487   9 C  pz        
   108      0.225746   7 N  py              162      0.212748  10 H  s         
   231     -0.195406  15 C  py              174     -0.170159  11 C  s         
   226      0.169320  15 C  s         

 Vector   30  Occ=2.000000D+00  E=-6.928800D-01
              MO Center=  1.1D+00,  6.2D-01,  2.2D-01, r^2= 6.6D+00
   Bfn.  Coefficient  Atom+Function         Bfn.  Coefficient  Atom+Function  
  ----- ------------  ---------------      ----- ------------  ---------------
    13      0.247435   2 C  s                57     -0.225955   5 C  px        
    80      0.222558   6 O  s                83     -0.204297   6 O  py        
    56     -0.193863   5 C  s                84      0.190574   6 O  pz        
    15      0.156792   2 C  py        

 Vector   31  Occ=2.000000D+00  E=-6.693958D-01
              MO Center= -8.3D-02, -7.0D-01,  1.8D-01, r^2= 7.3D+00
   Bfn.  Coefficient  Atom+Function         Bfn.  Coefficient  Atom+Function  
  ----- ------------  ---------------      ----- ------------  ---------------
   139      0.326882   9 C  s               226      0.285812  15 C  s         
   278     -0.233649  17 N  py              145     -0.202354   9 C  py        
   312      0.193236  19 C  py              310     -0.171158  19 C  s         
   225     -0.165230  15 C  s               354      0.164195  22 C  px        
   404     -0.163898  24 N  px              315      0.158926  19 C  py        

 Vector   32  Occ=2.000000D+00  E=-6.402658D-01
              MO Center=  5.7D-01,  1.1D+00, -4.5D-01, r^2= 6.9D+00
   Bfn.  Coefficient  Atom+Function         Bfn.  Coefficient  Atom+Function  
  ----- ------------  ---------------      ----- ------------  ---------------
   254      0.254917  16 O  pz              225      0.231642  15 C  s         
    16      0.183586   2 C  pz              250     -0.179893  16 O  s         
    59      0.168636   5 C  pz              229     -0.166954  15 C  pz        
     1      0.165656   1 H  s                44     -0.165684   4 H  s         
   139     -0.158863   9 C  s         

 Vector   33  Occ=2.000000D+00  E=-6.263165D-01
              MO Center= -1.3D-01,  1.2D-01, -2.8D-01, r^2= 8.9D+00
   Bfn.  Coefficient  Atom+Function         Bfn.  Coefficient  Atom+Function  
  ----- ------------  ---------------      ----- ------------  ---------------
   139      0.219705   9 C  s               254      0.215802  16 O  pz        
   229     -0.165937  15 C  pz              250     -0.151442  16 O  s         

 Vector   34  Occ=2.000000D+00  E=-6.147895D-01
              MO Center= -6.3D-02, -9.8D-01,  1.7D-01, r^2= 9.1D+00
   Bfn.  Coefficient  Atom+Function         Bfn.  Coefficient  Atom+Function  
  ----- ------------  ---------------      ----- ------------  ---------------
   332      0.227976  20 H  s               310      0.216580  19 C  s         
   312     -0.171861  19 C  py              353     -0.165167  22 C  s         
   380     -0.155450  23 O  py        

 Vector   35  Occ=2.000000D+00  E=-6.013584D-01
              MO Center=  1.6D-01,  7.4D-01,  8.0D-02, r^2= 8.3D+00
   Bfn.  Coefficient  Atom+Function         Bfn.  Coefficient  Atom+Function  
  ----- ------------  ---------------      ----- ------------  ---------------
   139      0.228938   9 C  s                58     -0.204243   5 C  py        
   225     -0.179634  15 C  s                82     -0.176882   6 O  px        
    83      0.166239   6 O  py              176     -0.165943  11 C  py        
   215      0.150290  14 H  s         

 Vector   36  Occ=2.000000D+00  E=-5.989764D-01
              MO Center= -4.0D-01, -6.9D-01, -3.9D-02, r^2= 7.1D+00
   Bfn.  Coefficient  Atom+Function         Bfn.  Coefficient  Atom+Function  
  ----- ------------  ---------------      ----- ------------  ---------------
   145      0.278915   9 C  py              225      0.252813  15 C  s         
   139     -0.212523   9 C  s               254      0.183215  16 O  pz        
   277     -0.182544  17 N  px              380      0.177342  23 O  py        
   231      0.166664  15 C  py        

 Vector   37  Occ=2.000000D+00  E=-5.941831D-01
              MO Center= -7.1D-01, -1.1D+00, -7.5D-02, r^2= 7.7D+00
   Bfn.  Coefficient  Atom+Function         Bfn.  Coefficient  Atom+Function  
  ----- ------------  ---------------      ----- ------------  ---------------
   313      0.202737  19 C  pz              381      0.186373  23 O  pz        
   341     -0.174935  21 H  s               333      0.156556  20 H  s         

 Vector   38  Occ=2.000000D+00  E=-5.889484D-01
              MO Center=  8.7D-01,  2.2D+00, -1.7D-01, r^2= 8.2D+00
   Bfn.  Coefficient  Atom+Function         Bfn.  Coefficient  Atom+Function  
  ----- ------------  ---------------      ----- ------------  ---------------
    35      0.284985   3 H  s                36      0.284357   3 H  s         
    13     -0.247074   2 C  s                14      0.225929   2 C  px        
   214      0.219044  14 H  s               175     -0.190100  11 C  px        
   215      0.187774  14 H  s                15     -0.183408   2 C  py        
    16      0.155570   2 C  pz               44     -0.152782   4 H  s         

 Vector   39  Occ=2.000000D+00  E=-5.695153D-01
              MO Center=  2.9D-01, -5.6D-01, -1.6D-01, r^2= 1.1D+01
   Bfn.  Coefficient  Atom+Function         Bfn.  Coefficient  Atom+Function  
  ----- ------------  ---------------      ----- ------------  ---------------
   380      0.280748  23 O  py              355     -0.204723  22 C  py        
     1      0.159834   1 H  s               311     -0.151514  19 C  px        

 Vector   40  Occ=2.000000D+00  E=-5.576217D-01
              MO Center= -5.0D-01,  1.9D+00, -1.0D-02, r^2= 7.7D+00
   Bfn.  Coefficient  Atom+Function         Bfn.  Coefficient  Atom+Function  
  ----- ------------  ---------------      ----- ------------  ---------------
   215      0.315336  14 H  s                12      0.298695   2 C  s         
    55     -0.259595   5 C  s               214      0.254083  14 H  s         
    14     -0.220937   2 C  px               35     -0.222016   3 H  s         
    13      0.209939   2 C  s               226     -0.209668  15 C  s         
   175     -0.201498  11 C  px              176     -0.196993  11 C  py        

 Vector   41  Occ=2.000000D+00  E=-5.497330D-01
              MO Center= -8.5D-01,  1.1D+00, -7.1D-02, r^2= 8.1D+00
   Bfn.  Coefficient  Atom+Function         Bfn.  Coefficient  Atom+Function  
  ----- ------------  ---------------      ----- ------------  ---------------
   177      0.265935  11 C  pz              205     -0.255163  13 H  s         
    13      0.204553   2 C  s               163     -0.200377  10 H  s         
   174     -0.200032  11 C  s               206     -0.191607  13 H  s         
   143     -0.168980   9 C  pz              162     -0.169429  10 H  s         
   197      0.169317  12 H  s               380     -0.155695  23 O  py        

 Vector   42  Occ=2.000000D+00  E=-5.385905D-01
              MO Center= -3.6D-01,  1.1D+00, -7.8D-02, r^2= 6.9D+00
   Bfn.  Coefficient  Atom+Function         Bfn.  Coefficient  Atom+Function  
  ----- ------------  ---------------      ----- ------------  ---------------
   141      0.162869   9 C  px              253      0.162494  16 O  py        
   175     -0.157640  11 C  px              176      0.150310  11 C  py        

 Vector   43  Occ=2.000000D+00  E=-5.242549D-01
              MO Center= -2.3D-01,  3.0D-01,  1.3D-01, r^2= 8.3D+00
   Bfn.  Coefficient  Atom+Function         Bfn.  Coefficient  Atom+Function  
  ----- ------------  ---------------      ----- ------------  ---------------
   178      0.185334  11 C  px              162     -0.181435  10 H  s         
    84      0.175816   6 O  pz              143     -0.172118   9 C  pz        
   174     -0.158762  11 C  s         

 Vector   44  Occ=2.000000D+00  E=-5.171653D-01
              MO Center= -1.4D-01, -1.8D+00, -2.9D-02, r^2= 5.9D+00
   Bfn.  Coefficient  Atom+Function         Bfn.  Coefficient  Atom+Function  
  ----- ------------  ---------------      ----- ------------  ---------------
   381     -0.233380  23 O  pz              406     -0.234338  24 N  pz        
   333      0.226522  20 H  s               313      0.224026  19 C  pz        
   341     -0.223286  21 H  s               139      0.181252   9 C  s         
   409     -0.176339  24 N  pz              356     -0.175314  22 C  pz        
   384     -0.172326  23 O  pz               13      0.154887   2 C  s         

 Vector   45  Occ=2.000000D+00  E=-4.494334D-01
              MO Center= -2.3D-01,  6.1D-01, -3.2D-01, r^2= 4.6D+00
   Bfn.  Coefficient  Atom+Function         Bfn.  Coefficient  Atom+Function  
  ----- ------------  ---------------      ----- ------------  ---------------
   253      0.394462  16 O  py              256      0.304873  16 O  py        
   109      0.254253   7 N  pz               84     -0.222753   6 O  pz        
   112      0.208159   7 N  pz               87     -0.172516   6 O  pz        
   111      0.165248   7 N  py              173      0.165535  11 C  s         
    83     -0.164351   6 O  py              108      0.163335   7 N  py        

 Vector   46  Occ=2.000000D+00  E=-4.472962D-01
              MO Center=  1.1D+00,  1.0D+00,  3.0D-01, r^2= 4.1D+00
   Bfn.  Coefficient  Atom+Function         Bfn.  Coefficient  Atom+Function  
  ----- ------------  ---------------      ----- ------------  ---------------
    13      0.534720   2 C  s                82      0.469833   6 O  px        
    56     -0.393018   5 C  s                85      0.384041   6 O  px        
    63     -0.258274   5 C  px              252      0.174228  16 O  px        
   276      0.150840  17 N  s         

 Vector   47  Occ=2.000000D+00  E=-4.374018D-01
              MO Center= -1.8D-01, -1.2D+00, -2.3D-01, r^2= 6.7D+00
   Bfn.  Coefficient  Atom+Function         Bfn.  Coefficient  Atom+Function  
  ----- ------------  ---------------      ----- ------------  ---------------
   379      0.327304  23 O  px              277      0.255682  17 N  px        
   382      0.253065  23 O  px               13      0.240597   2 C  s         
   252     -0.239114  16 O  px              280      0.220955  17 N  px        
   253     -0.216814  16 O  py               82      0.198231   6 O  px        
   255     -0.187691  16 O  px               63     -0.179985   5 C  px        

 Vector   48  Occ=2.000000D+00  E=-4.110777D-01
              MO Center= -2.3D-01,  7.5D-01, -1.4D-01, r^2= 4.9D+00
   Bfn.  Coefficient  Atom+Function         Bfn.  Coefficient  Atom+Function  
  ----- ------------  ---------------      ----- ------------  ---------------
   253      0.296403  16 O  py              109     -0.263938   7 N  pz        
   256      0.246053  16 O  py              112     -0.231342   7 N  pz        
   226      0.225823  15 C  s               108     -0.222581   7 N  py        
   231     -0.209757  15 C  py              111     -0.205198   7 N  py        
    84      0.179564   6 O  pz              197     -0.164826  12 H  s         

 Vector   49  Occ=2.000000D+00  E=-3.919075D-01
              MO Center=  6.2D-01, -2.7D+00, -9.6D-02, r^2= 3.2D+00
   Bfn.  Coefficient  Atom+Function         Bfn.  Coefficient  Atom+Function  
  ----- ------------  ---------------      ----- ------------  ---------------
   379      0.329786  23 O  px              406     -0.321217  24 N  pz        
   409     -0.268999  24 N  pz              381      0.261935  23 O  pz        
   382      0.253706  23 O  px              384      0.204145  23 O  pz        
   277     -0.179727  17 N  px              280     -0.164953  17 N  px        
   276      0.161974  17 N  s               405      0.152850  24 N  py        

 Vector   50  Occ=2.000000D+00  E=-3.867754D-01
              MO Center=  1.7D-01, -2.3D+00, -1.2D-01, r^2= 4.3D+00
   Bfn.  Coefficient  Atom+Function         Bfn.  Coefficient  Atom+Function  
  ----- ------------  ---------------      ----- ------------  ---------------
   276      0.347070  17 N  s               381     -0.285887  23 O  pz        
   406      0.271292  24 N  pz              277     -0.269486  17 N  px        
   280     -0.253097  17 N  px              379      0.247515  23 O  px        
   409      0.232848  24 N  pz              384     -0.220531  23 O  pz        
   252      0.205350  16 O  px              310     -0.201902  19 C  s         

 Vector   51  Occ=0.000000D+00  E= 2.081536D-02
              MO Center= -8.0D-01,  4.0D+00,  6.4D-01, r^2= 2.1D+01
   Bfn.  Coefficient  Atom+Function         Bfn.  Coefficient  Atom+Function  
  ----- ------------  ---------------      ----- ------------  ---------------
    56      3.263636   5 C  s               106     -2.785587   7 N  s         
   198     -2.393817  12 H  s               226      2.399305  15 C  s         
   234      1.970046  15 C  py              173      1.845710  11 C  s         
     3     -1.688548   1 H  s               197     -1.438221  12 H  s         
   310      1.322510  19 C  s               140      1.235645   9 C  s         

 Vector   52  Occ=0.000000D+00  E= 3.046715D-02
              MO Center= -1.2D+00,  1.5D+00,  1.3D+00, r^2= 3.0D+01
   Bfn.  Coefficient  Atom+Function         Bfn.  Coefficient  Atom+Function  
  ----- ------------  ---------------      ----- ------------  ---------------
    63      3.597225   5 C  px              234      2.545525  15 C  py        
   216      2.391810  14 H  s                13     -2.195299   2 C  s         
   147      2.180341   9 C  px              164      2.182975  10 H  s         
    64      1.948200   5 C  py               12      1.550443   2 C  s         
   334      1.542337  20 H  s                 3     -1.463298   1 H  s         

 Vector   53  Occ=0.000000D+00  E= 3.748520D-02
              MO Center=  4.1D-01,  2.2D+00,  4.3D-01, r^2= 3.5D+01
   Bfn.  Coefficient  Atom+Function         Bfn.  Coefficient  Atom+Function  
  ----- ------------  ---------------      ----- ------------  ---------------
   147      4.661372   9 C  px               63      3.946739   5 C  px        
   174      3.046516  11 C  s                13     -3.021978   2 C  s         
   276     -3.019452  17 N  s               226      2.614204  15 C  s         
   148     -2.581092   9 C  py              198      2.474223  12 H  s         
    64      2.436364   5 C  py               37     -2.161961   3 H  s         

 Vector   54  Occ=0.000000D+00  E= 4.283041D-02
              MO Center= -1.1D+00,  2.0D+00, -3.2D-01, r^2= 3.1D+01
   Bfn.  Coefficient  Atom+Function         Bfn.  Coefficient  Atom+Function  
  ----- ------------  ---------------      ----- ------------  ---------------
   164      3.772011  10 H  s               226     -2.673748  15 C  s         
   310      2.606313  19 C  s                46     -2.323073   4 H  s         
   198      2.148040  12 H  s               216     -2.110989  14 H  s         
   207     -2.095983  13 H  s               149     -2.050666   9 C  pz        
   174      2.026575  11 C  s               234     -1.972259  15 C  py        

 Vector   55  Occ=0.000000D+00  E= 5.049746D-02
              MO Center=  5.2D-01,  9.8D-01,  5.4D-01, r^2= 3.8D+01
   Bfn.  Coefficient  Atom+Function         Bfn.  Coefficient  Atom+Function  
  ----- ------------  ---------------      ----- ------------  ---------------
    37      3.427816   3 H  s               130     -3.348511   8 H  s         
   334     -2.600968  20 H  s               106     -2.517982   7 N  s         
    63     -2.312628   5 C  px              216      1.909064  14 H  s         
   234     -1.851384  15 C  py              113     -1.703782   7 N  px        
    56      1.672856   5 C  s               198      1.659472  12 H  s         

 Vector   56  Occ=0.000000D+00  E= 5.502774D-02
              MO Center=  4.5D-01,  1.8D+00,  2.5D-01, r^2= 3.7D+01
   Bfn.  Coefficient  Atom+Function         Bfn.  Coefficient  Atom+Function  
  ----- ------------  ---------------      ----- ------------  ---------------
   216      3.909762  14 H  s                 3      3.876528   1 H  s         
   353      3.389771  22 C  s               226      2.900661  15 C  s         
   234      2.682493  15 C  py              164     -2.315749  10 H  s         
   198     -2.043636  12 H  s                56     -1.829629   5 C  s         
   403     -1.726041  24 N  s               276      1.695869  17 N  s         

 Vector   57  Occ=0.000000D+00  E= 5.943814D-02
              MO Center=  3.0D-01,  7.4D-02,  4.1D-01, r^2= 3.8D+01
   Bfn.  Coefficient  Atom+Function         Bfn.  Coefficient  Atom+Function  
  ----- ------------  ---------------      ----- ------------  ---------------
   353      4.398525  22 C  s               164      3.963619  10 H  s         
    46      3.227493   4 H  s                13     -2.937273   2 C  s         
   198     -2.785395  12 H  s               334     -2.782095  20 H  s         
   149     -2.245598   9 C  pz              226      2.168248  15 C  s         
   403     -2.050637  24 N  s               148      1.887204   9 C  py        

 Vector   58  Occ=0.000000D+00  E= 6.791100D-02
              MO Center= -8.3D-01,  2.2D+00, -1.2D+00, r^2= 3.2D+01
   Bfn.  Coefficient  Atom+Function         Bfn.  Coefficient  Atom+Function  
  ----- ------------  ---------------      ----- ------------  ---------------
   207      5.534244  13 H  s               226      3.993120  15 C  s         
   198     -3.864375  12 H  s                46     -3.465487   4 H  s         
   174     -3.012153  11 C  s               276     -2.738657  17 N  s         
    37      2.336579   3 H  s               183      2.188801  11 C  pz        
   234     -2.125807  15 C  py              216     -1.751714  14 H  s         

 Vector   59  Occ=0.000000D+00  E= 6.871890D-02
              MO Center= -7.4D-01, -5.8D-01, -5.0D-01, r^2= 3.6D+01
   Bfn.  Coefficient  Atom+Function         Bfn.  Coefficient  Atom+Function  
  ----- ------------  ---------------      ----- ------------  ---------------
    56     10.457820   5 C  s                13     -5.212518   2 C  s         
   164     -4.867402  10 H  s               343     -4.651766  21 H  s         
   300      3.120580  18 H  s               353      2.745890  22 C  s         
   149      2.686259   9 C  pz              319     -2.694459  19 C  pz        
   174     -2.286435  11 C  s               198      2.266249  12 H  s         

 Vector   60  Occ=0.000000D+00  E= 7.335805D-02
              MO Center= -1.1D-01, -1.5D-01,  4.3D-03, r^2= 4.1D+01
   Bfn.  Coefficient  Atom+Function         Bfn.  Coefficient  Atom+Function  
  ----- ------------  ---------------      ----- ------------  ---------------
    56      5.065516   5 C  s               216     -4.493274  14 H  s         
   164      4.311107  10 H  s               130     -3.089857   8 H  s         
   300     -2.938815  18 H  s               207      2.868250  13 H  s         
   149     -2.828389   9 C  pz              427     -2.841355  25 H  s         
   106     -2.594845   7 N  s               235      2.596194  15 C  pz        

 Vector   61  Occ=0.000000D+00  E= 8.242329D-02
              MO Center=  5.5D-01,  1.9D+00, -5.1D-01, r^2= 3.5D+01
   Bfn.  Coefficient  Atom+Function         Bfn.  Coefficient  Atom+Function  
  ----- ------------  ---------------      ----- ------------  ---------------
   353     11.064466  22 C  s               310     -9.360118  19 C  s         
   130      5.651915   8 H  s               276      5.419879  17 N  s         
    37      4.761133   3 H  s               140     -4.072191   9 C  s         
   147     -3.918238   9 C  px              207     -3.861550  13 H  s         
     3     -3.676300   1 H  s                56      3.267563   5 C  s         

 Vector   62  Occ=0.000000D+00  E= 9.003930D-02
              MO Center= -1.1D+00, -5.7D-01,  1.4D+00, r^2= 3.4D+01
   Bfn.  Coefficient  Atom+Function         Bfn.  Coefficient  Atom+Function  
  ----- ------------  ---------------      ----- ------------  ---------------
    56     12.481553   5 C  s               226     -8.148069  15 C  s         
   300      7.762154  18 H  s               164     -7.127226  10 H  s         
    13     -6.605154   2 C  s               334     -6.549406  20 H  s         
   276      5.644318  17 N  s               353      4.498102  22 C  s         
   149      4.453865   9 C  pz              198      4.420546  12 H  s         

 Vector   63  Occ=0.000000D+00  E= 9.483794D-02
              MO Center=  1.0D+00, -3.8D-01,  1.0D+00, r^2= 3.0D+01
   Bfn.  Coefficient  Atom+Function         Bfn.  Coefficient  Atom+Function  
  ----- ------------  ---------------      ----- ------------  ---------------
    56     14.453531   5 C  s               310    -10.526744  19 C  s         
    13    -10.195047   2 C  s               353     10.049095  22 C  s         
   436     -9.750576  26 H  s               164      5.598357  10 H  s         
   234     -4.444162  15 C  py              427      4.309142  25 H  s         
   207      3.714740  13 H  s                65     -3.629935   5 C  pz        

 Vector   64  Occ=0.000000D+00  E= 1.045148D-01
              MO Center=  3.5D-01,  1.7D-01, -2.2D-01, r^2= 3.5D+01
   Bfn.  Coefficient  Atom+Function         Bfn.  Coefficient  Atom+Function  
  ----- ------------  ---------------      ----- ------------  ---------------
    13     23.717985   2 C  s               353     18.685218  22 C  s         
    56    -16.966330   5 C  s               310    -12.806442  19 C  s         
    63    -12.693174   5 C  px              140     -6.889241   9 C  s         
    21     -5.697018   2 C  py               64     -5.389956   5 C  py        
   164     -5.192396  10 H  s               317     -5.097270  19 C  px        

 Vector   65  Occ=0.000000D+00  E= 1.163558D-01
              MO Center=  2.0D-01, -5.1D-01, -4.4D-01, r^2= 3.1D+01
   Bfn.  Coefficient  Atom+Function         Bfn.  Coefficient  Atom+Function  
  ----- ------------  ---------------      ----- ------------  ---------------
   226     23.277027  15 C  s               310    -21.107096  19 C  s         
   353     16.668718  22 C  s                13    -10.592826   2 C  s         
   174     -8.531986  11 C  s                56      7.719500   5 C  s         
    63      6.557015   5 C  px              235      5.812324  15 C  pz        
   317     -5.645404  19 C  px              148      5.186925   9 C  py        

 Vector   66  Occ=0.000000D+00  E= 1.180030D-01
              MO Center= -1.3D+00,  7.6D-01, -1.8D-01, r^2= 3.2D+01
   Bfn.  Coefficient  Atom+Function         Bfn.  Coefficient  Atom+Function  
  ----- ------------  ---------------      ----- ------------  ---------------
   226     24.163571  15 C  s               174    -20.448358  11 C  s         
    13     19.669924   2 C  s                56    -18.704411   5 C  s         
   147    -11.747548   9 C  px               63     -8.021547   5 C  px        
   310     -7.555203  19 C  s                64     -6.781818   5 C  py        
   284     -6.152180  17 N  py               65      5.558243   5 C  pz        

 Vector   67  Occ=0.000000D+00  E= 1.288968D-01
              MO Center= -7.3D-01,  2.5D+00,  4.4D-01, r^2= 2.5D+01
   Bfn.  Coefficient  Atom+Function         Bfn.  Coefficient  Atom+Function  
  ----- ------------  ---------------      ----- ------------  ---------------
   226     19.137410  15 C  s                56     17.740548   5 C  s         
   106    -12.298421   7 N  s               174     -9.731261  11 C  s         
   276     -7.616349  17 N  s               148      7.044801   9 C  py        
   140      6.246288   9 C  s                13     -4.375323   2 C  s         
   181     -4.133163  11 C  px              310      3.924498  19 C  s         

 Vector   68  Occ=0.000000D+00  E= 1.315505D-01
              MO Center=  1.2D+00, -1.4D-02, -2.8D-01, r^2= 2.7D+01
   Bfn.  Coefficient  Atom+Function         Bfn.  Coefficient  Atom+Function  
  ----- ------------  ---------------      ----- ------------  ---------------
    56    -12.869332   5 C  s                13     11.859785   2 C  s         
   310     10.287782  19 C  s               353     -8.106922  22 C  s         
   436     -7.242387  26 H  s                65      5.908730   5 C  pz        
    64     -5.653870   5 C  py              148      5.476275   9 C  py        
    63     -4.290489   5 C  px              276     -4.207018  17 N  s         

 Vector   69  Occ=0.000000D+00  E= 1.351723D-01
              MO Center= -8.6D-01,  8.4D-01,  7.5D-01, r^2= 2.7D+01
   Bfn.  Coefficient  Atom+Function         Bfn.  Coefficient  Atom+Function  
  ----- ------------  ---------------      ----- ------------  ---------------
    13     20.429815   2 C  s                63    -15.884314   5 C  px        
   147    -15.230276   9 C  px               56    -10.674157   5 C  s         
    64     -8.474208   5 C  py              174     -8.163576  11 C  s         
    65      6.131168   5 C  pz              106      5.920903   7 N  s         
    22      4.328782   2 C  pz              436      3.984753  26 H  s         

 Vector   70  Occ=0.000000D+00  E= 1.417821D-01
              MO Center= -2.7D-01,  1.3D+00, -2.2D-01, r^2= 3.1D+01
   Bfn.  Coefficient  Atom+Function         Bfn.  Coefficient  Atom+Function  
  ----- ------------  ---------------      ----- ------------  ---------------
   310     12.081357  19 C  s               234     10.372464  15 C  py        
   226     -9.585841  15 C  s               174     -9.228033  11 C  s         
   276      8.115289  17 N  s                64     -7.646278   5 C  py        
   235     -7.014374  15 C  pz              284      6.343093  17 N  py        
   148      5.854066   9 C  py              233     -5.819318  15 C  px        

 Vector   71  Occ=0.000000D+00  E= 1.458968D-01
              MO Center= -2.3D-01,  1.5D+00,  9.8D-01, r^2= 2.4D+01
   Bfn.  Coefficient  Atom+Function         Bfn.  Coefficient  Atom+Function  
  ----- ------------  ---------------      ----- ------------  ---------------
    13      9.105389   2 C  s                63     -8.805007   5 C  px        
   147     -8.084171   9 C  px               56     -7.699521   5 C  s         
   174     -7.562772  11 C  s               148      6.357247   9 C  py        
   276      5.977610  17 N  s               140     -4.983704   9 C  s         
   234     -4.574437  15 C  py               64     -4.321661   5 C  py        

 Vector   72  Occ=0.000000D+00  E= 1.494361D-01
              MO Center= -4.3D-01, -5.8D-01,  2.4D-01, r^2= 2.8D+01
   Bfn.  Coefficient  Atom+Function         Bfn.  Coefficient  Atom+Function  
  ----- ------------  ---------------      ----- ------------  ---------------
   234      9.853350  15 C  py              310     -9.412884  19 C  s         
   353      8.989314  22 C  s                13      6.487636   2 C  s         
   276      6.428968  17 N  s                63     -5.442928   5 C  px        
   226      5.306212  15 C  s               300      4.831864  18 H  s         
   106     -4.788909   7 N  s               174     -3.961660  11 C  s         

 Vector   73  Occ=0.000000D+00  E= 1.521355D-01
              MO Center=  3.1D-01,  2.4D-01,  4.5D-01, r^2= 2.9D+01
   Bfn.  Coefficient  Atom+Function         Bfn.  Coefficient  Atom+Function  
  ----- ------------  ---------------      ----- ------------  ---------------
   149      6.645224   9 C  pz              164     -6.486019  10 H  s         
   360     -5.543258  22 C  px              235     -4.119167  15 C  pz        
   276      3.914308  17 N  s               310     -3.932142  19 C  s         
   403      3.760712  24 N  s                65      3.636682   5 C  pz        
   148      3.091553   9 C  py               56     -2.768610   5 C  s         

 Vector   74  Occ=0.000000D+00  E= 1.544347D-01
              MO Center= -1.1D+00,  1.6D+00, -2.8D-01, r^2= 2.4D+01
   Bfn.  Coefficient  Atom+Function         Bfn.  Coefficient  Atom+Function  
  ----- ------------  ---------------      ----- ------------  ---------------
   174      9.756420  11 C  s               147      9.284386   9 C  px        
   226      9.221464  15 C  s               310     -9.065816  19 C  s         
   106     -8.434953   7 N  s               235      5.993815  15 C  pz        
   181      5.426947  11 C  px              403     -5.192018  24 N  s         
   353      4.385074  22 C  s               216      4.162487  14 H  s         

 Vector   75  Occ=0.000000D+00  E= 1.587885D-01
              MO Center=  2.7D-01,  1.6D-01,  3.5D-01, r^2= 2.7D+01
   Bfn.  Coefficient  Atom+Function         Bfn.  Coefficient  Atom+Function  
  ----- ------------  ---------------      ----- ------------  ---------------
   436     10.063603  26 H  s               147     -8.720390   9 C  px        
   174     -8.598408  11 C  s               353     -7.990559  22 C  s         
   148      6.881346   9 C  py              234      5.531642  15 C  py        
   310      5.530676  19 C  s               403      5.102670  24 N  s         
   318      4.487994  19 C  py              361     -4.352335  22 C  py        

 Vector   76  Occ=0.000000D+00  E= 1.611222D-01
              MO Center=  3.0D-01, -6.5D-01,  1.3D-01, r^2= 2.8D+01
   Bfn.  Coefficient  Atom+Function         Bfn.  Coefficient  Atom+Function  
  ----- ------------  ---------------      ----- ------------  ---------------
   403    -10.771260  24 N  s               310     10.017930  19 C  s         
   353      5.447293  22 C  s               360      5.263833  22 C  px        
   164      4.610682  10 H  s               361      4.328266  22 C  py        
   284      3.612974  17 N  py              226     -3.496284  15 C  s         
   300     -3.483841  18 H  s                63     -3.338126   5 C  px        

 Vector   77  Occ=0.000000D+00  E= 1.644291D-01
              MO Center= -3.9D-01,  7.8D-03,  9.7D-01, r^2= 2.9D+01
   Bfn.  Coefficient  Atom+Function         Bfn.  Coefficient  Atom+Function  
  ----- ------------  ---------------      ----- ------------  ---------------
   226     14.380378  15 C  s                56     -9.894360   5 C  s         
   276     -8.552937  17 N  s               353      7.991279  22 C  s         
   149     -7.947770   9 C  pz              148      6.992757   9 C  py        
   235      6.233682  15 C  pz              234     -5.878928  15 C  py        
   233      5.495580  15 C  px              334     -5.468069  20 H  s         

 Vector   78  Occ=0.000000D+00  E= 1.702874D-01
              MO Center= -1.3D-01,  1.3D+00,  1.5D-01, r^2= 2.5D+01
   Bfn.  Coefficient  Atom+Function         Bfn.  Coefficient  Atom+Function  
  ----- ------------  ---------------      ----- ------------  ---------------
   226     14.682439  15 C  s               174    -14.206627  11 C  s         
   148     13.664324   9 C  py              310      7.448898  19 C  s         
   276     -7.239962  17 N  s                63      6.357958   5 C  px        
   140      5.953145   9 C  s                56     -5.587804   5 C  s         
   181     -5.572307  11 C  px              147     -5.210679   9 C  px        

 Vector   79  Occ=0.000000D+00  E= 1.720938D-01
              MO Center= -2.8D-01,  7.3D-01,  2.4D-01, r^2= 2.2D+01
   Bfn.  Coefficient  Atom+Function         Bfn.  Coefficient  Atom+Function  
  ----- ------------  ---------------      ----- ------------  ---------------
    13     11.110823   2 C  s               174     -9.791918  11 C  s         
    63     -8.916238   5 C  px              147     -8.088825   9 C  px        
    64     -4.822305   5 C  py               56     -4.684035   5 C  s         
   149      4.667091   9 C  pz              403     -4.647605  24 N  s         
   310      4.237430  19 C  s               360      4.128139  22 C  px        

 Vector   80  Occ=0.000000D+00  E= 1.757908D-01
              MO Center= -4.7D-01,  5.3D-01, -5.2D-02, r^2= 2.8D+01
   Bfn.  Coefficient  Atom+Function         Bfn.  Coefficient  Atom+Function  
  ----- ------------  ---------------      ----- ------------  ---------------
   310     16.066059  19 C  s               276    -12.237052  17 N  s         
    56    -11.170699   5 C  s               353    -11.188868  22 C  s         
    63      8.883667   5 C  px              317      5.795297  19 C  px        
   164      5.746751  10 H  s               113      5.460506   7 N  px        
   130     -5.410558   8 H  s               149     -5.234156   9 C  pz        

 Vector   81  Occ=0.000000D+00  E= 1.762840D-01
              MO Center=  3.9D-01,  2.3D-01, -1.3D-01, r^2= 2.9D+01
   Bfn.  Coefficient  Atom+Function         Bfn.  Coefficient  Atom+Function  
  ----- ------------  ---------------      ----- ------------  ---------------
    56      8.350242   5 C  s               360     -7.785455  22 C  px        
   226     -6.525820  15 C  s               310     -6.398574  19 C  s         
   147     -6.279820   9 C  px              106      5.949166   7 N  s         
   234     -5.568526  15 C  py              403      4.515980  24 N  s         
   235     -4.303966  15 C  pz               37     -4.189513   3 H  s         

 Vector   82  Occ=0.000000D+00  E= 1.802714D-01
              MO Center=  1.7D-01,  4.2D-02, -2.6D-01, r^2= 2.9D+01
   Bfn.  Coefficient  Atom+Function         Bfn.  Coefficient  Atom+Function  
  ----- ------------  ---------------      ----- ------------  ---------------
   310     15.044063  19 C  s                56    -12.943570   5 C  s         
   234      9.504088  15 C  py              318      9.517213  19 C  py        
    13      8.416300   2 C  s               276     -7.675035  17 N  s         
   353     -6.605121  22 C  s               403      6.421271  24 N  s         
   149     -5.279677   9 C  pz              361     -4.974093  22 C  py        

 Vector   83  Occ=0.000000D+00  E= 1.824961D-01
              MO Center=  2.8D-01,  1.0D-01,  4.0D-01, r^2= 3.0D+01
   Bfn.  Coefficient  Atom+Function         Bfn.  Coefficient  Atom+Function  
  ----- ------------  ---------------      ----- ------------  ---------------
    56     13.895213   5 C  s               353    -10.367102  22 C  s         
   436      8.950802  26 H  s               174     -7.126524  11 C  s         
   113     -6.480631   7 N  px              226     -6.410838  15 C  s         
    64      5.988351   5 C  py              300     -5.771354  18 H  s         
   276     -5.643308  17 N  s               147     -5.553906   9 C  px        

 Vector   84  Occ=0.000000D+00  E= 1.842416D-01
              MO Center= -4.0D-01,  2.4D-02,  2.5D-01, r^2= 2.2D+01
   Bfn.  Coefficient  Atom+Function         Bfn.  Coefficient  Atom+Function  
  ----- ------------  ---------------      ----- ------------  ---------------
   174     10.794579  11 C  s               353     -9.308349  22 C  s         
   147      8.978197   9 C  px              149     -7.293769   9 C  pz        
   235      7.188454  15 C  pz              106     -6.562955   7 N  s         
    63     -6.367957   5 C  px              226     -6.034792  15 C  s         
    13      5.739566   2 C  s                56     -4.334109   5 C  s         

 Vector   85  Occ=0.000000D+00  E= 1.885920D-01
              MO Center=  2.1D-03,  7.2D-01,  1.4D-01, r^2= 2.5D+01
   Bfn.  Coefficient  Atom+Function         Bfn.  Coefficient  Atom+Function  
  ----- ------------  ---------------      ----- ------------  ---------------
    56     18.411385   5 C  s               234     -9.815097  15 C  py        
   148     -7.194517   9 C  py              113     -6.525418   7 N  px        
   147     -4.872531   9 C  px              207      4.648279  13 H  s         
   310     -4.478292  19 C  s               276     -4.441992  17 N  s         
   318     -4.215611  19 C  py               22     -4.013446   2 C  pz        

 Vector   86  Occ=0.000000D+00  E= 1.935777D-01
              MO Center= -7.9D-01, -4.7D-01,  1.0D-01, r^2= 2.6D+01
   Bfn.  Coefficient  Atom+Function         Bfn.  Coefficient  Atom+Function  
  ----- ------------  ---------------      ----- ------------  ---------------
   436      8.761895  26 H  s               226     -7.145460  15 C  s         
   403      6.362010  24 N  s               360     -6.054509  22 C  px        
   310      5.894210  19 C  s               174     -5.396199  11 C  s         
   233     -5.294498  15 C  px              182      5.136889  11 C  py        
   318      5.104034  19 C  py              198     -4.771905  12 H  s         

 Vector   87  Occ=0.000000D+00  E= 2.009452D-01
              MO Center= -3.7D-01, -1.7D-02, -6.3D-01, r^2= 2.4D+01
   Bfn.  Coefficient  Atom+Function         Bfn.  Coefficient  Atom+Function  
  ----- ------------  ---------------      ----- ------------  ---------------
   174     20.302446  11 C  s                56    -16.901119   5 C  s         
   226    -16.252453  15 C  s                13     10.564996   2 C  s         
   147      9.867986   9 C  px              234     -9.774714  15 C  py        
   148     -8.757713   9 C  py              318     -8.496809  19 C  py        
   106      7.348780   7 N  s               353     -6.691559  22 C  s         

 Vector   88  Occ=0.000000D+00  E= 2.067965D-01
              MO Center= -2.2D-01, -5.0D-01, -6.3D-02, r^2= 2.6D+01
   Bfn.  Coefficient  Atom+Function         Bfn.  Coefficient  Atom+Function  
  ----- ------------  ---------------      ----- ------------  ---------------
    56     13.114057   5 C  s                13    -11.024071   2 C  s         
   106     -9.520378   7 N  s               276     -7.006202  17 N  s         
   147      6.764649   9 C  px              149     -6.733247   9 C  pz        
   164      6.513286  10 H  s               233     -5.492975  15 C  px        
   226      5.464543  15 C  s               235      5.034059  15 C  pz        

 Vector   89  Occ=0.000000D+00  E= 2.159606D-01
              MO Center= -1.3D-02,  5.1D-02, -5.4D-01, r^2= 2.6D+01
   Bfn.  Coefficient  Atom+Function         Bfn.  Coefficient  Atom+Function  
  ----- ------------  ---------------      ----- ------------  ---------------
   226    -19.585026  15 C  s                56     18.423803   5 C  s         
   276     14.012977  17 N  s               140    -10.727434   9 C  s         
   310     -9.414730  19 C  s               353      8.668233  22 C  s         
   113     -6.246031   7 N  px               63     -5.266677   5 C  px        
   148     -5.188290   9 C  py              319      4.994817  19 C  pz        

 Vector   90  Occ=0.000000D+00  E= 2.231347D-01
              MO Center=  3.2D-01,  4.2D-02, -1.4D-02, r^2= 2.1D+01
   Bfn.  Coefficient  Atom+Function         Bfn.  Coefficient  Atom+Function  
  ----- ------------  ---------------      ----- ------------  ---------------
    13     16.645547   2 C  s                64     -8.308139   5 C  py        
    63     -8.265536   5 C  px               56     -8.098565   5 C  s         
   234     -7.336187  15 C  py              276     -6.945871  17 N  s         
   436     -6.834485  26 H  s               235      5.004850  15 C  pz        
   353      4.940224  22 C  s               174      3.608868  11 C  s         

 Vector   91  Occ=0.000000D+00  E= 2.260239D-01
              MO Center=  2.3D-01,  1.3D+00, -3.8D-01, r^2= 2.6D+01
   Bfn.  Coefficient  Atom+Function         Bfn.  Coefficient  Atom+Function  
  ----- ------------  ---------------      ----- ------------  ---------------
    56     50.068674   5 C  s                13    -41.517776   2 C  s         
   226    -11.905389  15 C  s                63     11.382240   5 C  px        
   174     -8.613576  11 C  s                20      8.361525   2 C  px        
    64      8.277820   5 C  py               12     -7.938643   2 C  s         
   113     -7.504744   7 N  px              149      7.364444   9 C  pz        

 Vector   92  Occ=0.000000D+00  E= 2.337459D-01
              MO Center=  1.0D-01,  3.1D-01,  2.0D-01, r^2= 2.5D+01
   Bfn.  Coefficient  Atom+Function         Bfn.  Coefficient  Atom+Function  
  ----- ------------  ---------------      ----- ------------  ---------------
    13     35.364708   2 C  s               226    -30.007117  15 C  s         
    56    -22.966948   5 C  s                63    -18.788473   5 C  px        
   353     14.038272  22 C  s               140    -12.323460   9 C  s         
   276      9.418865  17 N  s               147     -8.796008   9 C  px        
   106      8.342253   7 N  s               318      8.338339  19 C  py        

 Vector   93  Occ=0.000000D+00  E= 2.434101D-01
              MO Center= -2.1D-01, -1.9D+00,  5.6D-02, r^2= 2.1D+01
   Bfn.  Coefficient  Atom+Function         Bfn.  Coefficient  Atom+Function  
  ----- ------------  ---------------      ----- ------------  ---------------
[...]
   284    -11.379100  17 N  py              403     -9.801846  24 N  s         
   113      9.742727   7 N  px              310     -9.742689  19 C  s         
    13     -9.530076   2 C  s                56     -8.990187   5 C  s         
   140      8.252989   9 C  s               276     -7.872894  17 N  s         

 Vector  124  Occ=0.000000D+00  E= 4.077794D-01
              MO Center= -1.6D-01,  1.0D+00, -1.7D-01, r^2= 1.9D+01
   Bfn.  Coefficient  Atom+Function         Bfn.  Coefficient  Atom+Function  
  ----- ------------  ---------------      ----- ------------  ---------------
   353     11.931683  22 C  s               403    -10.688991  24 N  s         
   174    -10.429480  11 C  s               106     -6.128598   7 N  s         
   163      5.858083  10 H  s               233     -5.764108  15 C  px        
    81      5.323394   6 O  s                12     -5.204879   2 C  s         
   361      4.784293  22 C  py               63     -4.509856   5 C  px        

 Vector  125  Occ=0.000000D+00  E= 4.129584D-01
              MO Center= -9.6D-01,  5.2D-01,  4.6D-01, r^2= 1.5D+01
   Bfn.  Coefficient  Atom+Function         Bfn.  Coefficient  Atom+Function  
  ----- ------------  ---------------      ----- ------------  ---------------
   310     10.029205  19 C  s               353     -7.793693  22 C  s         
   276     -7.477917  17 N  s                13     -6.879020   2 C  s         
   163     -6.171982  10 H  s               226     -6.198726  15 C  s         
   284      6.158899  17 N  py              149      5.717753   9 C  pz        
   174      5.503563  11 C  s               147      5.294410   9 C  px        

 Vector  126  Occ=0.000000D+00  E= 4.157056D-01
              MO Center= -1.6D-01,  5.2D-01,  3.2D-01, r^2= 1.8D+01
   Bfn.  Coefficient  Atom+Function         Bfn.  Coefficient  Atom+Function  
  ----- ------------  ---------------      ----- ------------  ---------------
   276     13.627191  17 N  s                56     12.318211   5 C  s         
   353     12.161619  22 C  s               310    -11.691405  19 C  s         
   226     -9.036143  15 C  s               140     -8.924237   9 C  s         
   173     -5.737131  11 C  s               163      5.683177  10 H  s         
   197      4.757368  12 H  s               403     -4.456292  24 N  s         

 Vector  127  Occ=0.000000D+00  E= 4.227390D-01
              MO Center=  9.4D-01,  1.2D+00, -3.3D-01, r^2= 1.8D+01
   Bfn.  Coefficient  Atom+Function         Bfn.  Coefficient  Atom+Function  
  ----- ------------  ---------------      ----- ------------  ---------------
   106     10.840522   7 N  s               226     -9.160940  15 C  s         
   276      8.020045  17 N  s               234     -7.938388  15 C  py        
   353     -7.846782  22 C  s               403      7.488740  24 N  s         
    56     -7.119223   5 C  s                13      5.619472   2 C  s         
   163      5.496914  10 H  s                36     -4.572854   3 H  s         

 Vector  128  Occ=0.000000D+00  E= 4.302704D-01
              MO Center=  1.2D+00,  6.7D-01, -1.1D-01, r^2= 1.9D+01
   Bfn.  Coefficient  Atom+Function         Bfn.  Coefficient  Atom+Function  
  ----- ------------  ---------------      ----- ------------  ---------------
   353     15.724912  22 C  s               403     -9.022046  24 N  s         
   276     -8.163665  17 N  s                36     -6.655683   3 H  s         
    12      6.229160   2 C  s               310     -5.506245  19 C  s         
    81     -5.326828   6 O  s               174     -5.158133  11 C  s         
    13      4.737108   2 C  s                56      4.329894   5 C  s         

 Vector  129  Occ=0.000000D+00  E= 4.310995D-01
              MO Center= -6.3D-01, -2.4D-01, -2.7D-02, r^2= 1.6D+01
   Bfn.  Coefficient  Atom+Function         Bfn.  Coefficient  Atom+Function  
  ----- ------------  ---------------      ----- ------------  ---------------
   310     18.739376  19 C  s               353    -16.964421  22 C  s         
   276     -9.710012  17 N  s               173     -8.489256  11 C  s         
   403      7.726100  24 N  s               235      6.071752  15 C  pz        
   215      5.979458  14 H  s               174     -5.935910  11 C  s         
   317      5.294377  19 C  px              206      4.292420  13 H  s         

 Vector  130  Occ=0.000000D+00  E= 4.418816D-01
              MO Center=  1.2D+00,  1.3D+00, -1.0D-01, r^2= 1.7D+01
   Bfn.  Coefficient  Atom+Function         Bfn.  Coefficient  Atom+Function  
  ----- ------------  ---------------      ----- ------------  ---------------
   226     14.973527  15 C  s               276     -9.244182  17 N  s         
   310      8.415403  19 C  s                13     -8.247339   2 C  s         
   353     -8.156572  22 C  s               140      7.873589   9 C  s         
   106     -6.232709   7 N  s               149     -5.835308   9 C  pz        
   113      5.765516   7 N  px              251     -5.372776  16 O  s         

 Vector  131  Occ=0.000000D+00  E= 4.443134D-01
              MO Center=  1.0D+00,  1.8D+00, -4.6D-01, r^2= 1.6D+01
   Bfn.  Coefficient  Atom+Function         Bfn.  Coefficient  Atom+Function  
  ----- ------------  ---------------      ----- ------------  ---------------
    13     19.446061   2 C  s                56    -11.675303   5 C  s         
    45     -8.778988   4 H  s               276     -7.363396  17 N  s         
    12      6.873326   2 C  s               403     -5.970104  24 N  s         
   174      5.600023  11 C  s                65      5.293331   5 C  pz        
   436     -5.093605  26 H  s                55      4.955352   5 C  s         

 Vector  132  Occ=0.000000D+00  E= 4.514412D-01
              MO Center= -5.9D-01, -1.2D-01, -4.0D-01, r^2= 1.9D+01
   Bfn.  Coefficient  Atom+Function         Bfn.  Coefficient  Atom+Function  
  ----- ------------  ---------------      ----- ------------  ---------------
   226    -19.123721  15 C  s                13     17.726479   2 C  s         
   276     10.868828  17 N  s                56    -10.719218   5 C  s         
    12      9.141035   2 C  s               106      8.244294   7 N  s         
   140     -8.026165   9 C  s                 2     -7.782856   1 H  s         
   174      7.685579  11 C  s                63     -6.564272   5 C  px        

 Vector  133  Occ=0.000000D+00  E= 4.658125D-01
              MO Center= -5.5D-01,  5.8D-03, -2.6D-02, r^2= 1.8D+01
   Bfn.  Coefficient  Atom+Function         Bfn.  Coefficient  Atom+Function  
  ----- ------------  ---------------      ----- ------------  ---------------
   226     24.180779  15 C  s               310    -13.593426  19 C  s         
    56    -12.014080   5 C  s               276    -10.757647  17 N  s         
   113      8.260460   7 N  px              342      7.041160  21 H  s         
   235      5.828855  15 C  pz              173     -5.766925  11 C  s         
   284     -5.793382  17 N  py              147      5.657372   9 C  px        

 Vector  134  Occ=0.000000D+00  E= 4.701526D-01
              MO Center= -6.1D-01,  6.9D-01,  1.8D-02, r^2= 1.7D+01
   Bfn.  Coefficient  Atom+Function         Bfn.  Coefficient  Atom+Function  
  ----- ------------  ---------------      ----- ------------  ---------------
   353     13.644182  22 C  s               174     13.265509  11 C  s         
   310    -10.083306  19 C  s               226     -9.358610  15 C  s         
   276      9.097861  17 N  s               140     -7.432973   9 C  s         
   206     -7.124418  13 H  s               403     -5.063729  24 N  s         
    81     -4.329147   6 O  s               181      4.072974  11 C  px        

 Vector  135  Occ=0.000000D+00  E= 4.743747D-01
              MO Center=  4.5D-01,  6.7D-01, -4.4D-01, r^2= 1.9D+01
   Bfn.  Coefficient  Atom+Function         Bfn.  Coefficient  Atom+Function  
  ----- ------------  ---------------      ----- ------------  ---------------
    56     52.708876   5 C  s                13    -44.772851   2 C  s         
    63     13.482876   5 C  px                2      9.482192   1 H  s         
   106     -9.195357   7 N  s                12     -8.838114   2 C  s         
    64      8.098005   5 C  py               65     -8.034248   5 C  pz        
   173     -7.919773  11 C  s                45      7.721467   4 H  s         

 Vector  136  Occ=0.000000D+00  E= 4.769105D-01
              MO Center= -5.2D-01,  5.7D-01,  2.4D-01, r^2= 1.7D+01
   Bfn.  Coefficient  Atom+Function         Bfn.  Coefficient  Atom+Function  
  ----- ------------  ---------------      ----- ------------  ---------------
   174     43.671805  11 C  s               226    -20.929848  15 C  s         
   147     18.114587   9 C  px              148    -12.780956   9 C  py        
    56    -11.936288   5 C  s               234     -9.974754  15 C  py        
   197     -9.701451  12 H  s                12      9.618921   2 C  s         
   310     -9.601824  19 C  s               181      9.376185  11 C  px        

 Vector  137  Occ=0.000000D+00  E= 4.798676D-01
              MO Center= -8.1D-01, -3.4D-01, -2.2D-01, r^2= 1.5D+01
   Bfn.  Coefficient  Atom+Function         Bfn.  Coefficient  Atom+Function  
  ----- ------------  ---------------      ----- ------------  ---------------
   234     23.547433  15 C  py              226     17.002403  15 C  s         
   276    -13.077586  17 N  s               174    -12.020153  11 C  s         
   353     11.975833  22 C  s               284    -10.712766  17 N  py        
   140      7.164980   9 C  s               233     -6.852450  15 C  px        
   259     -5.534969  16 O  py               63      5.419048   5 C  px        

 Vector  138  Occ=0.000000D+00  E= 4.853093D-01
              MO Center= -7.9D-01,  9.6D-01, -2.5D-01, r^2= 1.6D+01
   Bfn.  Coefficient  Atom+Function         Bfn.  Coefficient  Atom+Function  
  ----- ------------  ---------------      ----- ------------  ---------------
   174     27.099222  11 C  s               226    -21.620844  15 C  s         
    56     17.290546   5 C  s                13    -16.906261   2 C  s         
   147     14.643425   9 C  px              234     -9.948699  15 C  py        
   215     -9.224041  14 H  s               182     -6.910858  11 C  py        
   276     -6.760495  17 N  s               284      6.262679  17 N  py        

 Vector  139  Occ=0.000000D+00  E= 4.943891D-01
              MO Center=  2.2D-01,  8.4D-01, -2.5D-01, r^2= 1.8D+01
   Bfn.  Coefficient  Atom+Function         Bfn.  Coefficient  Atom+Function  
  ----- ------------  ---------------      ----- ------------  ---------------
    13     31.385578   2 C  s                56    -22.130064   5 C  s         
   226    -17.751832  15 C  s               276     17.804270  17 N  s         
   353     16.252461  22 C  s                63    -15.286468   5 C  px        
   140    -14.140977   9 C  s               310     -9.866605  19 C  s         
    45     -6.877239   4 H  s               106      6.882754   7 N  s         

 Vector  140  Occ=0.000000D+00  E= 4.983197D-01
              MO Center= -4.2D-01,  7.7D-01, -2.6D-02, r^2= 1.7D+01
   Bfn.  Coefficient  Atom+Function         Bfn.  Coefficient  Atom+Function  
  ----- ------------  ---------------      ----- ------------  ---------------
   276     12.275104  17 N  s                13     11.484125   2 C  s         
   113     -7.144671   7 N  px              197     -6.456154  12 H  s         
   173      6.374246  11 C  s               163     -6.253018  10 H  s         
    63     -6.199007   5 C  px              148     -5.713059   9 C  py        
   114     -4.858047   7 N  py              225     -4.535587  15 C  s         

 Vector  141  Occ=0.000000D+00  E= 5.014533D-01
              MO Center= -3.9D-01,  1.8D-01,  1.7D-01, r^2= 1.7D+01
   Bfn.  Coefficient  Atom+Function         Bfn.  Coefficient  Atom+Function  
  ----- ------------  ---------------      ----- ------------  ---------------
   226     24.703247  15 C  s               353     21.229983  22 C  s         
   310    -18.659776  19 C  s               276    -15.996921  17 N  s         
   174    -14.653345  11 C  s                12    -10.546549   2 C  s         
   113     -6.286148   7 N  px               36      5.944409   3 H  s         
   140      5.500713   9 C  s               251     -5.036488  16 O  s         


 center of mass
 --------------
 x =   0.01755315 y =  -0.10926790 z =  -0.01044260

 moments of inertia (a.u.)
 ------------------
        3342.493316017637           0.000000000000          -0.000000000000
           0.000000000000        1581.502449981944          -0.000000000000
          -0.000000000000          -0.000000000000        4423.811168976662

  Mulliken analysis of the total density
  --------------------------------------

    Atom       Charge   Shell Charges
 -----------   ------   -------------------------------------------------------
    1 H    1     0.78   0.76  0.04  0.01  0.03 -0.06
    2 C    6     6.53   2.01  0.66  0.31  0.29  2.07  1.04 -0.03  0.06  0.12
    3 H    1     0.98   0.76  0.24  0.01  0.03 -0.06
    4 H    1     0.80   0.76  0.07  0.00  0.03 -0.07
    5 C    6     4.89   2.01  0.68  0.07 -0.14  1.89  0.32 -0.18  0.24  0.01
    6 O    8     8.79   2.01  0.81  1.00  0.15  2.80  1.86  0.16  0.01 -0.01
    7 N    7     7.62   2.01  0.72  0.83 -0.12  2.45  1.45  0.19  0.05  0.04
    8 H    1     0.97   0.77  0.21 -0.03  0.05 -0.04
    9 C    6     6.74   2.01  0.66  0.25  0.07  2.00  1.40  0.01  0.14  0.20
   10 H    1     1.17   0.79  0.31  0.02  0.03  0.02
   11 C    6     5.68   2.01  0.66  0.15  0.20  2.04  0.58 -0.03  0.07 -0.00
   12 H    1     1.00   0.77  0.27  0.01  0.03 -0.09
   13 H    1     0.91   0.77  0.15  0.03  0.03 -0.07
   14 H    1     0.98   0.77  0.26  0.00  0.03 -0.08
   15 C    6     4.20   2.01  0.68 -0.14 -0.03  1.89 -0.04 -0.04  0.23 -0.36
   16 O    8     8.85   2.01  0.82  1.04  0.18  2.78  1.86  0.15  0.01 -0.00
   17 N    7     7.30   2.01  0.72  0.75 -0.20  2.45  1.44  0.02  0.05  0.07
   18 H    1     1.05   0.77  0.26 -0.02  0.05 -0.02
   19 C    6     6.36   2.01  0.67  0.20  0.36  2.01  0.96 -0.03  0.11  0.07
   20 H    1     0.95   0.77  0.19  0.02  0.03 -0.06
   21 H    1     0.76   0.76  0.01 -0.00  0.03 -0.04
   22 C    6     4.82   2.01  0.68  0.14 -0.13  1.89  0.04 -0.03  0.24 -0.01
   23 O    8     8.81   2.01  0.82  1.02  0.20  2.79  1.82  0.15  0.01 -0.01
   24 N    7     7.14   2.01  0.72  0.77 -0.17  2.47  1.22  0.10  0.04 -0.03
   25 H    1     1.01   0.76  0.24 -0.01  0.05 -0.03
   26 H    1     0.92   0.73  0.28 -0.01  0.06 -0.13

       Multipole analysis of the density wrt the origin
       ------------------------------------------------

     L   x y z        total         open         nuclear
     -   - - -        -----         ----         -------
     0   0 0 0     -0.000000      0.000000    100.000000

     1   1 0 0     -0.576319      0.000000     -0.000000
     1   0 1 0      3.124846      0.000000      0.000000
     1   0 0 1      0.999007      0.000000      0.000000

     2   2 0 0    -52.895124      0.000000    768.375514
     2   1 1 0      3.444962      0.000000      5.612896
     2   1 0 1     -6.756303      0.000000    -16.589076
     2   0 2 0    -65.157051      0.000000   1686.663964
     2   0 1 1     -6.413621      0.000000    -15.454134
     2   0 0 2    -59.915381      0.000000    145.835421


 Task  times  cpu:     2172.5s     wall:     2408.3s


                                NWChem Input Module
                                -------------------


 Summary of allocated global arrays
-----------------------------------
  No active global arrays


MA_summarize_allocated_blocks: starting scan ...
MA_summarize_allocated_blocks: scan completed: 0 heap blocks, 0 stack blocks
MA usage statistics:

	allocation statistics:
					      heap	     stack
					      ----	     -----
	current number of blocks	         0	         0
	maximum number of blocks	        16	        14
	current total bytes		         0	         0
	maximum total bytes		     92816	  22971464
	maximum total K-bytes		        93	     22972
	maximum total M-bytes		         1	        23


                                     CITATION
                                     --------
                Please cite the following reference when publishing
                           results obtained with NWChem:

          E. Apra, E. J. Bylaska, W. A. de Jong, N. Govind, K. Kowalski,
       T. P. Straatsma, M. Valiev, H. J. J. van Dam, Y. Alexeev, J. Anchell,
       V. Anisimov, F. W. Aquino, R. Atta-Fynn, J. Autschbach, N. P. Bauman,
     J. C. Becca, D. E. Bernholdt, K. Bhaskaran-Nair, S. Bogatko, P. Borowski,
         J. Boschen, J. Brabec, A. Bruner, E. Cauet, Y. Chen, G. N. Chuev,
      C. J. Cramer, J. Daily, M. J. O. Deegan, T. H. Dunning Jr., M. Dupuis,
   K. G. Dyall, G. I. Fann, S. A. Fischer, A. Fonari, H. Fruchtl, L. Gagliardi,
      J. Garza, N. Gawande, S. Ghosh, K. Glaesemann, A. W. Gotz, J. Hammond,
       V. Helms, E. D. Hermes, K. Hirao, S. Hirata, M. Jacquelin, L. Jensen,
   B. G. Johnson, H. Jonsson, R. A. Kendall, M. Klemm, R. Kobayashi, V. Konkov,
      S. Krishnamoorthy, M. Krishnan, Z. Lin, R. D. Lins, R. J. Littlefield,
      A. J. Logsdail, K. Lopata, W. Ma, A. V. Marenich, J. Martin del Campo,
   D. Mejia-Rodriguez, J. E. Moore, J. M. Mullin, T. Nakajima, D. R. Nascimento,
    J. A. Nichols, P. J. Nichols, J. Nieplocha, A. Otero-de-la-Roza, B. Palmer,
    A. Panyala, T. Pirojsirikul, B. Peng, R. Peverati, J. Pittner, L. Pollack,
   R. M. Richard, P. Sadayappan, G. C. Schatz, W. A. Shelton, D. W. Silverstein,
   D. M. A. Smith, T. A. Soares, D. Song, M. Swart, H. L. Taylor, G. S. Thomas,
            V. Tipparaju, D. G. Truhlar, K. Tsemekhman, T. Van Voorhis,
      A. Vazquez-Mayagoitia, P. Verma, O. Villa, A. Vishnu, K. D. Vogiatzis,
        D. Wang, J. H. Weare, M. J. Williamson, T. L. Windus, K. Wolinski,
        A. T. Wong, Q. Wu, C. Yang, Q. Yu, M. Zacharias, Z. Zhang, Y. Zhao,
                                and R. J. Harrison
                        "NWChem: Past, present, and future
                         J. Chem. Phys. 152, 184102 (2020)
                               doi:10.1063/5.0004997

                                      AUTHORS
                                      -------
  E. Apra, E. J. Bylaska, N. Govind, K. Kowalski, M. Valiev, D. Mejia-Rodriguez,
       A. Kunitsa, N. P. Bauman, A. Panyala, W. A. de Jong, T. P. Straatsma,
   H. J. J. van Dam, D. Wang, T. L. Windus, J. Hammond, J. Autschbach, A. Woods,
    K. Bhaskaran-Nair, J. Brabec, K. Lopata, S. A. Fischer, S. Krishnamoorthy,
     M. Jacquelin, W. Ma, M. Klemm, O. Villa, Y. Chen, V. Anisimov, F. Aquino,
     S. Hirata, M. T. Hackler, E. Hermes, L. Jensen, J. E. Moore, J. C. Becca,
      V. Konjkov, T. Risthaus, M. Malagoli, A. Marenich, A. Otero-de-la-Roza,
        J. Mullin, P. Nichols, R. Peverati, J. Pittner, Y. Zhao, P.-D. Fan,
        A. Fonari, M. J. Williamson, R. J. Harrison, J. R. Rehr, M. Dupuis,
     D. Silverstein, D. M. A. Smith, J. Nieplocha, V. Tipparaju, M. Krishnan,
     B. E. Van Kuiken, A. Vazquez-Mayagoitia, M. Swart, Q. Wu, T. Van Voorhis,
     A. A. Auer, M. Nooijen, L. D. Crosby, E. Brown, G. Cisneros, G. I. Fann,
   H. Fruchtl, J. Garza, K. Hirao, R. A. Kendall, J. A. Nichols, K. Tsemekhman,
    K. Wolinski, J. Anchell, D. E. Bernholdt, P. Borowski, T. Clark, D. Clerc,
   H. Dachsel, M. J. O. Deegan, K. Dyall, D. Elwood, E. Glendening, M. Gutowski,
   A. C. Hess, J. Jaffe, B. G. Johnson, J. Ju, R. Kobayashi, R. Kutteh, Z. Lin,
   R. Littlefield, X. Long, B. Meng, T. Nakajima, S. Niu, L. Pollack, M. Rosing,
   K. Glaesemann, G. Sandrone, M. Stave, H. Taylor, G. Thomas, J. H. van Lenthe,
                               A. T. Wong, Z. Zhang.

 Total times  cpu:     2172.5s     wall:     2408.8s
