export TMOUT=5400
export TMPDIR=/tmp
export PTMPDIR=/tmp/ptmp
 argument  1 = ALA_HIS_1.nw
                                         
                                         


             Northwest Computational Chemistry Package (NWChem) 7.2.0
             --------------------------------------------------------


                    Environmental Molecular Sciences Laboratory
                       Pacific Northwest National Laboratory
                                Richland, WA 99352

                              Copyright (c) 1994-2022
                       Pacific Northwest National Laboratory
                            Battelle Memorial Institute

             NWChem is an open-source computational chemistry package
                        distributed under the terms of the
                      Educational Community License (ECL) 2.0
             A copy of the license is included with this distribution
                              in the LICENSE.TXT file

                                  ACKNOWLEDGMENT
                                  --------------

            This software and its documentation were developed at the
            EMSL at Pacific Northwest National Laboratory, a multiprogram
            national laboratory, operated for the U.S. Department of Energy
            by Battelle under Contract Number DE-AC05-76RL01830. Support
            for this work was provided by the Department of Energy Office
            of Biological and Environmental Research, Office of Basic
            Energy Sciences, and the Office of Advanced Scientific Computing.


           Job information
           ---------------

    hostname        = nova18-23
    program         = /opt/rit/el9/20230413/app/linux-rhel9-x86_64_v3/gcc-11.2.1/nwchem-7.2.0-oxtctbuhfuzyfaoziquq6bki22grib3g/bin/nwchem
    date            = Thu Jun 26 22:51:33 2025

    compiled        = Wed_May_17_23:46:39_2023
    source          = /tmp/root/spack-stage/spack-stage-nwchem-7.2.0-oxtctbuhfuzyfaoziquq6bki22grib3g/spack-src
    nwchem branch   = 7.2.0
    nwchem revision = d0d141fd
    ga revision     = 5.8.0
    use scalapack   = T
    input           = ALA_HIS_1.nw
    prefix          = ALA_HIS_1.
    data base       = ./ALA_HIS_1.db
    status          = startup
    nproc           =        8
    time left       =     -1s



           Memory information
           ------------------

    heap     =   26214396 doubles =    200.0 Mbytes
    stack    =   26214401 doubles =    200.0 Mbytes
    global   =   52428800 doubles =    400.0 Mbytes (distinct from heap & stack)
    total    =  104857597 doubles =    800.0 Mbytes
    verify   = yes
    hardfail = no 


           Directory information
           ---------------------

  0 permanent = .
  0 scratch   = .




                                NWChem Input Module
                                -------------------



 Scaling coordinates for geometry "geometry" by  1.889725989
 (inverse scale =  0.529177249)

 C1  symmetry detected

          ------
          auto-z
          ------
  no constraints, skipping    0.0000000000000000     
  no constraints, skipping    0.0000000000000000     


                             Geometry "geometry" -> ""
                             -------------------------

 Output coordinates in angstroms (scale by  1.889725989 to convert to a.u.)

  No.       Tag          Charge          X              Y              Z
 ---- ---------------- ---------- -------------- -------------- --------------
    1 H                    1.0000     0.62705993     6.03012391    -0.66792447
    2 C                    6.0000     0.11719534     5.82132837     0.27012751
    3 H                    1.0000    -0.61404225     6.60333548     0.47011370
    4 H                    1.0000     0.83670791     5.77774491     1.08520490
    5 C                    6.0000    -0.60119414     4.49706071     0.16424688
    6 O                    8.0000    -1.81623232     4.44405716     0.30016915
    7 N                    7.0000     0.15581511     3.42884042    -0.07373717
    8 H                    1.0000     1.15559475     3.54875756    -0.13857963
    9 C                    6.0000    -0.34577013     2.05792664    -0.17858768
   10 H                    1.0000    -1.18425061     1.93302382     0.50957710
   11 C                    6.0000    -0.84973967     1.81577367    -1.60926712
   12 H                    1.0000    -1.25662039     0.80738728    -1.69454880
   13 H                    1.0000    -1.63800536     2.53093166    -1.84837431
   14 H                    1.0000    -0.02969257     1.93409848    -2.31917909
   15 C                    6.0000     0.74178015     1.03941441     0.21247654
   16 O                    8.0000     1.93139826     1.35604744     0.21194749
   17 N                    7.0000     0.33793127    -0.19785647     0.50589751
   18 H                    1.0000    -0.65369441    -0.40248364     0.44239776
   19 C                    6.0000     1.19199828    -1.32862985     0.90920895
   20 H                    1.0000     1.91580607    -0.96823779     1.64048102
   21 C                    6.0000     0.29383590    -2.36960159     1.60050278
   22 H                    1.0000     0.89514700    -3.21871153     1.92621168
   23 H                    1.0000    -0.14447496    -1.91865595     2.49216898
   24 C                    6.0000    -0.83194409    -2.85841589     0.72155512
   25 N                    7.0000    -1.98513087    -2.13157062     0.41411047
   26 C                    6.0000    -2.68754313    -2.89966762    -0.43122260
   27 H                    1.0000    -3.64366382    -2.62466671    -0.85860736
   28 N                    7.0000    -2.03310461    -4.04819974    -0.67936807
   29 H                    1.0000    -2.34929735    -4.78338797    -1.29459358
   30 C                    6.0000    -0.85547429    -4.03624980     0.03528432
   31 H                    1.0000    -0.07413722    -4.78502361     0.03568673
   32 C                    6.0000     2.02344556    -1.94587101    -0.24037305
   33 O                    8.0000     2.26261709    -3.14685325    -0.28169659
   34 N                    7.0000     2.46947957    -1.15514668    -1.20515576
   35 H                    1.0000     2.33252033    -0.15738672    -1.12848607
   36 H                    1.0000     3.00830673    -1.56373660    -1.95084777

      Atomic Mass 
      ----------- 

      H                  1.007825
      C                 12.000000
      O                 15.994910
      N                 14.003070


 Effective nuclear repulsion energy (a.u.)    1468.9782887008

            Nuclear Dipole moment (a.u.) 
            ----------------------------
        X                 Y               Z
 ---------------- ---------------- ----------------
     0.0000000000     0.0000000000    -0.0000000000



                                Z-matrix (autoz)
                                -------- 

 Units are Angstrom for bonds and degrees for angles

      Type          Name      I     J     K     L     M      Value
      ----------- --------  ----- ----- ----- ----- ----- ----------
    1 Stretch                  1     2                       1.08789
    2 Stretch                  2     3                       1.08915
    3 Stretch                  2     4                       1.08809
    4 Stretch                  2     5                       1.51029
    5 Stretch                  5     6                       1.22377
    6 Stretch                  5     7                       1.33071
    7 Stretch                  7     8                       1.00903
    8 Stretch                  7     9                       1.46355
    9 Stretch                  9    10                       1.09189
   10 Stretch                  9    11                       1.53606
   11 Stretch                  9    15                       1.54048
   12 Stretch                 11    12                       1.09072
   13 Stretch                 11    13                       1.09086
   14 Stretch                 11    14                       1.09108
   15 Stretch                 15    16                       1.23104
   16 Stretch                 15    17                       1.33418
   17 Stretch                 17    18                       1.01451
   18 Stretch                 17    19                       1.47334
   19 Stretch                 19    20                       1.09020
   20 Stretch                 19    21                       1.53890
   21 Stretch                 19    32                       1.54720
   22 Stretch                 21    22                       1.09025
   23 Stretch                 21    23                       1.09112
   24 Stretch                 21    24                       1.50959
   25 Stretch                 24    25                       1.39738
   26 Stretch                 24    30                       1.36338
   27 Stretch                 25    26                       1.34087
   28 Stretch                 26    27                       1.08280
   29 Stretch                 26    28                       1.34499
   30 Stretch                 28    29                       1.00945
   31 Stretch                 28    30                       1.37756
   32 Stretch                 30    31                       1.08220
   33 Stretch                 32    33                       1.22526
   34 Stretch                 32    34                       1.32476
   35 Stretch                 34    35                       1.01003
   36 Stretch                 34    36                       1.00665
   37 Bend                     1     2     3               109.58379
   38 Bend                     1     2     4               110.10169
   39 Bend                     1     2     5               109.31541
   40 Bend                     2     5     6               120.16297
   41 Bend                     2     5     7               116.47543
   42 Bend                     3     2     4               109.58315
   43 Bend                     3     2     5               108.84948
   44 Bend                     4     2     5               109.38602
   45 Bend                     5     7     8               118.66914
   46 Bend                     5     7     9               124.73494
   47 Bend                     6     5     7               123.36109
   48 Bend                     7     9    10               108.97635
   49 Bend                     7     9    11               109.07692
   50 Bend                     7     9    15               111.04970
   51 Bend                     8     7     9               116.50609
   52 Bend                     9    11    12               109.93551
   53 Bend                     9    11    13               109.74807
   54 Bend                     9    11    14               110.01869
   55 Bend                     9    15    16               120.80142
   56 Bend                     9    15    17               117.08276
   57 Bend                    10     9    11               108.48361
   58 Bend                    10     9    15               107.84902
   59 Bend                    11     9    15               111.33636
   60 Bend                    12    11    13               108.62681
   61 Bend                    12    11    14               109.25429
   62 Bend                    13    11    14               109.23189
   63 Bend                    15    17    18               117.97932
   64 Bend                    15    17    19               126.61814
   65 Bend                    16    15    17               122.08199
   66 Bend                    17    19    20               108.34666
   67 Bend                    17    19    21               107.68615
   68 Bend                    17    19    32               114.47556
   69 Bend                    18    17    19               115.40005
   70 Bend                    19    21    22               109.82379
   71 Bend                    19    21    23               108.78320
   72 Bend                    19    21    24               113.12474
   73 Bend                    19    32    33               121.39882
   74 Bend                    19    32    34               118.94189
   75 Bend                    20    19    21               108.04635
   76 Bend                    20    19    32               105.87155
   77 Bend                    21    19    32               112.18208
   78 Bend                    21    24    25               125.10707
   79 Bend                    21    24    30               125.85135
   80 Bend                    22    21    23               107.41531
   81 Bend                    22    21    24               109.45483
   82 Bend                    23    21    24               108.06292
   83 Bend                    24    25    26               105.84590
   84 Bend                    24    30    28               106.46205
   85 Bend                    24    30    31               125.80932
   86 Bend                    25    24    30               108.92743
   87 Bend                    25    26    27               124.46570
   88 Bend                    25    26    28               110.52304
   89 Bend                    26    28    29               125.58857
   90 Bend                    26    28    30               108.23020
   91 Bend                    27    26    28               125.00905
   92 Bend                    28    30    31               127.69048
   93 Bend                    29    28    30               126.17616
   94 Bend                    32    34    35               119.25466
   95 Bend                    32    34    36               118.51762
   96 Bend                    33    32    34               119.65446
   97 Bend                    35    34    36               121.99018
   98 Torsion                  1     2     5     6        -119.61566
   99 Torsion                  1     2     5     7          60.63649
  100 Torsion                  2     5     7     8           2.05562
  101 Torsion                  2     5     7     9         178.48139
  102 Torsion                  3     2     5     6           0.05154
  103 Torsion                  3     2     5     7        -179.69630
  104 Torsion                  4     2     5     6         119.75986
  105 Torsion                  4     2     5     7         -59.98799
  106 Torsion                  5     7     9    10         -34.16541
  107 Torsion                  5     7     9    11          84.10636
  108 Torsion                  5     7     9    15        -152.82736
  109 Torsion                  6     5     7     8        -177.68335
  110 Torsion                  6     5     7     9          -1.25759
  111 Torsion                  7     9    11    12        -178.19033
  112 Torsion                  7     9    11    13         -58.77080
  113 Torsion                  7     9    11    14          61.44627
  114 Torsion                  7     9    15    16         -19.42324
  115 Torsion                  7     9    15    17         162.64886
  116 Torsion                  8     7     9    10         142.33027
  117 Torsion                  8     7     9    11         -99.39796
  118 Torsion                  8     7     9    15          23.66832
  119 Torsion                  9    15    17    18           0.89922
  120 Torsion                  9    15    17    19        -179.70455
  121 Torsion                 10     9    11    12         -59.60991
  122 Torsion                 10     9    11    13          59.80963
  123 Torsion                 10     9    11    14        -179.97330
  124 Torsion                 10     9    15    16        -138.76223
  125 Torsion                 10     9    15    17          43.30987
  126 Torsion                 11     9    15    16         102.33309
  127 Torsion                 11     9    15    17         -75.59481
  128 Torsion                 12    11     9    15          58.91467
  129 Torsion                 13    11     9    15         178.33420
  130 Torsion                 14    11     9    15         -61.44873
  131 Torsion                 15    17    19    20          44.02761
  132 Torsion                 15    17    19    21         160.66314
  133 Torsion                 15    17    19    32         -73.84669
  134 Torsion                 16    15    17    18        -177.00016
  135 Torsion                 16    15    17    19           2.39607
  136 Torsion                 17    19    21    22        -179.24856
  137 Torsion                 17    19    21    23         -61.94858
  138 Torsion                 17    19    21    24          58.14110
  139 Torsion                 17    19    32    33        -145.51580
  140 Torsion                 17    19    32    34          33.68120
  141 Torsion                 18    17    19    20        -136.56264
  142 Torsion                 18    17    19    21         -19.92711
  143 Torsion                 18    17    19    32         105.56305
  144 Torsion                 19    21    24    25         -74.98609
  145 Torsion                 19    21    24    30         100.69378
  146 Torsion                 19    32    34    35           5.59935
  147 Torsion                 19    32    34    36        -179.88691
  148 Torsion                 20    19    21    22         -62.41704
  149 Torsion                 20    19    21    23          54.88293
  150 Torsion                 20    19    21    24         174.97261
  151 Torsion                 20    19    32    33          95.21085
  152 Torsion                 20    19    32    34         -85.59215
  153 Torsion                 21    19    32    33         -22.41729
  154 Torsion                 21    19    32    34         156.77971
  155 Torsion                 21    24    25    26         177.39358
  156 Torsion                 21    24    30    28        -177.23508
  157 Torsion                 21    24    30    31           0.65599
  158 Torsion                 22    21    19    32          53.90808
  159 Torsion                 22    21    24    25         162.19857
  160 Torsion                 22    21    24    30         -22.12156
  161 Torsion                 23    21    19    32         171.20806
  162 Torsion                 23    21    24    25          45.51426
  163 Torsion                 23    21    24    30        -138.80587
  164 Torsion                 24    21    19    32         -68.70226
  165 Torsion                 24    25    26    27         179.72224
  166 Torsion                 24    25    26    28          -0.79603
  167 Torsion                 24    30    28    26           0.48002
  168 Torsion                 24    30    28    29         179.69467
  169 Torsion                 25    24    30    28          -0.97041
  170 Torsion                 25    24    30    31         176.92066
  171 Torsion                 25    26    28    29        -179.00819
  172 Torsion                 25    26    28    30           0.21226
  173 Torsion                 26    25    24    30           1.09443
  174 Torsion                 26    28    30    31        -177.35867
  175 Torsion                 27    26    28    29           0.47012
  176 Torsion                 27    26    28    30         179.69057
  177 Torsion                 29    28    30    31           1.85598
  178 Torsion                 33    32    34    35        -175.18936
  179 Torsion                 33    32    34    36          -0.67562


            XYZ format geometry
            -------------------
    36
 geometry
 H                     0.62705993     6.03012391    -0.66792447
 C                     0.11719534     5.82132837     0.27012751
 H                    -0.61404225     6.60333548     0.47011370
 H                     0.83670791     5.77774491     1.08520490
 C                    -0.60119414     4.49706071     0.16424688
 O                    -1.81623232     4.44405716     0.30016915
 N                     0.15581511     3.42884042    -0.07373717
 H                     1.15559475     3.54875756    -0.13857963
 C                    -0.34577013     2.05792664    -0.17858768
 H                    -1.18425061     1.93302382     0.50957710
 C                    -0.84973967     1.81577367    -1.60926712
 H                    -1.25662039     0.80738728    -1.69454880
 H                    -1.63800536     2.53093166    -1.84837431
 H                    -0.02969257     1.93409848    -2.31917909
 C                     0.74178015     1.03941441     0.21247654
 O                     1.93139826     1.35604744     0.21194749
 N                     0.33793127    -0.19785647     0.50589751
 H                    -0.65369441    -0.40248364     0.44239776
 C                     1.19199828    -1.32862985     0.90920895
 H                     1.91580607    -0.96823779     1.64048102
 C                     0.29383590    -2.36960159     1.60050278
 H                     0.89514700    -3.21871153     1.92621168
 H                    -0.14447496    -1.91865595     2.49216898
 C                    -0.83194409    -2.85841589     0.72155512
 N                    -1.98513087    -2.13157062     0.41411047
 C                    -2.68754313    -2.89966762    -0.43122260
 H                    -3.64366382    -2.62466671    -0.85860736
 N                    -2.03310461    -4.04819974    -0.67936807
 H                    -2.34929735    -4.78338797    -1.29459358
 C                    -0.85547429    -4.03624980     0.03528432
 H                    -0.07413722    -4.78502361     0.03568673
 C                     2.02344556    -1.94587101    -0.24037305
 O                     2.26261709    -3.14685325    -0.28169659
 N                     2.46947957    -1.15514668    -1.20515576
 H                     2.33252033    -0.15738672    -1.12848607
 H                     3.00830673    -1.56373660    -1.95084777

 ==============================================================================
                                internuclear distances
 ------------------------------------------------------------------------------
       center one      |      center two      | atomic units |  angstroms
 ------------------------------------------------------------------------------
    2 C                |   1 H                |     2.05581  |     1.08789
    3 H                |   2 C                |     2.05819  |     1.08915
    4 H                |   2 C                |     2.05620  |     1.08809
    5 C                |   2 C                |     2.85404  |     1.51029
    6 O                |   5 C                |     2.31258  |     1.22377
    7 N                |   5 C                |     2.51468  |     1.33071
    8 H                |   7 N                |     1.90679  |     1.00903
    9 C                |   7 N                |     2.76571  |     1.46355
   10 H                |   9 C                |     2.06337  |     1.09189
   11 C                |   9 C                |     2.90272  |     1.53606
   12 H                |  11 C                |     2.06116  |     1.09072
   13 H                |  11 C                |     2.06144  |     1.09086
   14 H                |  11 C                |     2.06184  |     1.09108
   15 C                |   9 C                |     2.91108  |     1.54048
   16 O                |  15 C                |     2.32632  |     1.23104
   17 N                |  15 C                |     2.52123  |     1.33418
   18 H                |  17 N                |     1.91714  |     1.01451
   19 C                |  17 N                |     2.78421  |     1.47334
   20 H                |  19 C                |     2.06018  |     1.09020
   21 C                |  19 C                |     2.90809  |     1.53890
   22 H                |  21 C                |     2.06028  |     1.09025
   23 H                |  21 C                |     2.06191  |     1.09112
   24 C                |  21 C                |     2.85272  |     1.50959
   25 N                |  24 C                |     2.64066  |     1.39738
   26 C                |  25 N                |     2.53389  |     1.34087
   27 H                |  26 C                |     2.04619  |     1.08280
   28 N                |  26 C                |     2.54166  |     1.34499
   29 H                |  28 N                |     1.90758  |     1.00945
   30 C                |  24 C                |     2.57642  |     1.36338
   30 C                |  28 N                |     2.60322  |     1.37756
   31 H                |  30 C                |     2.04506  |     1.08220
   32 C                |  19 C                |     2.92379  |     1.54720
   33 O                |  32 C                |     2.31541  |     1.22526
   34 N                |  32 C                |     2.50344  |     1.32476
   35 H                |  34 N                |     1.90868  |     1.01003
   36 H                |  34 N                |     1.90229  |     1.00665
 ------------------------------------------------------------------------------
                         number of included internuclear distances:         36
 ==============================================================================



 ==============================================================================
                                 internuclear angles
 ------------------------------------------------------------------------------
        center 1       |       center 2       |       center 3       |  degrees
 ------------------------------------------------------------------------------
    1 H                |   2 C                |   3 H                |   109.58
    1 H                |   2 C                |   4 H                |   110.10
    1 H                |   2 C                |   5 C                |   109.32
    3 H                |   2 C                |   4 H                |   109.58
    3 H                |   2 C                |   5 C                |   108.85
    4 H                |   2 C                |   5 C                |   109.39
    2 C                |   5 C                |   6 O                |   120.16
    2 C                |   5 C                |   7 N                |   116.48
    6 O                |   5 C                |   7 N                |   123.36
    5 C                |   7 N                |   8 H                |   118.67
    5 C                |   7 N                |   9 C                |   124.73
    8 H                |   7 N                |   9 C                |   116.51
    7 N                |   9 C                |  10 H                |   108.98
    7 N                |   9 C                |  11 C                |   109.08
    7 N                |   9 C                |  15 C                |   111.05
   10 H                |   9 C                |  11 C                |   108.48
   10 H                |   9 C                |  15 C                |   107.85
   11 C                |   9 C                |  15 C                |   111.34
    9 C                |  11 C                |  12 H                |   109.94
    9 C                |  11 C                |  13 H                |   109.75
    9 C                |  11 C                |  14 H                |   110.02
   12 H                |  11 C                |  13 H                |   108.63
   12 H                |  11 C                |  14 H                |   109.25
   13 H                |  11 C                |  14 H                |   109.23
    9 C                |  15 C                |  16 O                |   120.80
    9 C                |  15 C                |  17 N                |   117.08
   16 O                |  15 C                |  17 N                |   122.08
   15 C                |  17 N                |  18 H                |   117.98
   15 C                |  17 N                |  19 C                |   126.62
   18 H                |  17 N                |  19 C                |   115.40
   17 N                |  19 C                |  20 H                |   108.35
   17 N                |  19 C                |  21 C                |   107.69
   17 N                |  19 C                |  32 C                |   114.48
   20 H                |  19 C                |  21 C                |   108.05
   20 H                |  19 C                |  32 C                |   105.87
   21 C                |  19 C                |  32 C                |   112.18
   19 C                |  21 C                |  22 H                |   109.82
   19 C                |  21 C                |  23 H                |   108.78
   19 C                |  21 C                |  24 C                |   113.12
   22 H                |  21 C                |  23 H                |   107.42
   22 H                |  21 C                |  24 C                |   109.45
   23 H                |  21 C                |  24 C                |   108.06
   21 C                |  24 C                |  25 N                |   125.11
   21 C                |  24 C                |  30 C                |   125.85
   25 N                |  24 C                |  30 C                |   108.93
   24 C                |  25 N                |  26 C                |   105.85
   25 N                |  26 C                |  27 H                |   124.47
   25 N                |  26 C                |  28 N                |   110.52
   27 H                |  26 C                |  28 N                |   125.01
   26 C                |  28 N                |  29 H                |   125.59
   26 C                |  28 N                |  30 C                |   108.23
   29 H                |  28 N                |  30 C                |   126.18
   24 C                |  30 C                |  28 N                |   106.46
   24 C                |  30 C                |  31 H                |   125.81
   28 N                |  30 C                |  31 H                |   127.69
   19 C                |  32 C                |  33 O                |   121.40
   19 C                |  32 C                |  34 N                |   118.94
   33 O                |  32 C                |  34 N                |   119.65
   32 C                |  34 N                |  35 H                |   119.25
   32 C                |  34 N                |  36 H                |   118.52
   35 H                |  34 N                |  36 H                |   121.99
 ------------------------------------------------------------------------------
                            number of included internuclear angles:         61
 ==============================================================================



  library name resolved from: environment
  library file name is: </opt/rit/el9/20230413/app/linux-rhel9-x86_64_v3/gcc-11.2.1/nwchem-7.2.0-oxtctbuhfuzyfaoziquq6bki22grib3g/share/nwchem/libraries/>
  


 Summary of "ao basis" -> "" (cartesian)
 ------------------------------------------------------------------------------
       Tag                 Description            Shells   Functions and Types
 ---------------- ------------------------------  ------  ---------------------
 *                        aug-cc-pvdz                 on all atoms 


                      Basis "ao basis" -> "ao basis" (cartesian)
                      -----
  H (Hydrogen)
  ------------
            Exponent  Coefficients 
       -------------- ---------------------------------------------------------
  1 S  1.30100000E+01  0.019685
  1 S  1.96200000E+00  0.137977
  1 S  4.44600000E-01  0.478148

  2 S  1.22000000E-01  1.000000

  3 S  2.97400000E-02  1.000000

  4 P  7.27000000E-01  1.000000

  5 P  1.41000000E-01  1.000000

  C (Carbon)
  ----------
            Exponent  Coefficients 
       -------------- ---------------------------------------------------------
  1 S  6.66500000E+03  0.000692
  1 S  1.00000000E+03  0.005329
  1 S  2.28000000E+02  0.027077
  1 S  6.47100000E+01  0.101718
  1 S  2.10600000E+01  0.274740
  1 S  7.49500000E+00  0.448564
  1 S  2.79700000E+00  0.285074
  1 S  5.21500000E-01  0.015204

  2 S  6.66500000E+03 -0.000146
  2 S  1.00000000E+03 -0.001154
  2 S  2.28000000E+02 -0.005725
  2 S  6.47100000E+01 -0.023312
  2 S  2.10600000E+01 -0.063955
  2 S  7.49500000E+00 -0.149981
  2 S  2.79700000E+00 -0.127262
  2 S  5.21500000E-01  0.544529

  3 S  1.59600000E-01  1.000000

  4 S  4.69000000E-02  1.000000

  5 P  9.43900000E+00  0.038109
  5 P  2.00200000E+00  0.209480
  5 P  5.45600000E-01  0.508557

  6 P  1.51700000E-01  1.000000

  7 P  4.04100000E-02  1.000000

  8 D  5.50000000E-01  1.000000

  9 D  1.51000000E-01  1.000000

  O (Oxygen)
  ----------
            Exponent  Coefficients 
       -------------- ---------------------------------------------------------
  1 S  1.17200000E+04  0.000710
  1 S  1.75900000E+03  0.005470
  1 S  4.00800000E+02  0.027837
  1 S  1.13700000E+02  0.104800
  1 S  3.70300000E+01  0.283062
  1 S  1.32700000E+01  0.448719
  1 S  5.02500000E+00  0.270952
  1 S  1.01300000E+00  0.015458

  2 S  1.17200000E+04 -0.000160
  2 S  1.75900000E+03 -0.001263
  2 S  4.00800000E+02 -0.006267
  2 S  1.13700000E+02 -0.025716
  2 S  3.70300000E+01 -0.070924
  2 S  1.32700000E+01 -0.165411
  2 S  5.02500000E+00 -0.116955
  2 S  1.01300000E+00  0.557368

  3 S  3.02300000E-01  1.000000

  4 S  7.89600000E-02  1.000000

  5 P  1.77000000E+01  0.043018
  5 P  3.85400000E+00  0.228913
  5 P  1.04600000E+00  0.508728

  6 P  2.75300000E-01  1.000000

  7 P  6.85600000E-02  1.000000

  8 D  1.18500000E+00  1.000000

  9 D  3.32000000E-01  1.000000

  N (Nitrogen)
  ------------
            Exponent  Coefficients 
       -------------- ---------------------------------------------------------
  1 S  9.04600000E+03  0.000700
  1 S  1.35700000E+03  0.005389
  1 S  3.09300000E+02  0.027406
  1 S  8.77300000E+01  0.103207
  1 S  2.85600000E+01  0.278723
  1 S  1.02100000E+01  0.448540
  1 S  3.83800000E+00  0.278238
  1 S  7.46600000E-01  0.015440

  2 S  9.04600000E+03 -0.000153
  2 S  1.35700000E+03 -0.001208
  2 S  3.09300000E+02 -0.005992
  2 S  8.77300000E+01 -0.024544
  2 S  2.85600000E+01 -0.067459
  2 S  1.02100000E+01 -0.158078
  2 S  3.83800000E+00 -0.121831
  2 S  7.46600000E-01  0.549003

  3 S  2.24800000E-01  1.000000

  4 S  6.12400000E-02  1.000000

  5 P  1.35500000E+01  0.039919
  5 P  2.91700000E+00  0.217169
  5 P  7.97300000E-01  0.510319

  6 P  2.18500000E-01  1.000000

  7 P  5.61100000E-02  1.000000

  8 D  8.17000000E-01  1.000000

  9 D  2.30000000E-01  1.000000



 Summary of "ao basis" -> "ao basis" (cartesian)
 ------------------------------------------------------------------------------
       Tag                 Description            Shells   Functions and Types
 ---------------- ------------------------------  ------  ---------------------
 H                        aug-cc-pvdz                5        9   3s2p
 C                        aug-cc-pvdz                9       25   4s3p2d
 O                        aug-cc-pvdz                9       25   4s3p2d
 N                        aug-cc-pvdz                9       25   4s3p2d


                                 NWChem SCF Module
                                 -----------------



  ao basis        = "ao basis"
  functions       =   628
  atoms           =    36
  closed shells   =    71
  open shells     =     0
  charge          =   0.00
  wavefunction    = RHF 
  input vectors   = atomic
  output vectors  = ./ALA_HIS_1.movecs
  use symmetry    = F
  symmetry adapt  = F


 Summary of "ao basis" -> "ao basis" (cartesian)
 ------------------------------------------------------------------------------
       Tag                 Description            Shells   Functions and Types
 ---------------- ------------------------------  ------  ---------------------
 H                        aug-cc-pvdz                5        9   3s2p
 C                        aug-cc-pvdz                9       25   4s3p2d
 O                        aug-cc-pvdz                9       25   4s3p2d
 N                        aug-cc-pvdz                9       25   4s3p2d



 Forming initial guess at       1.7s


 !! The overlap matrix has   7 vectors deemed linearly dependent with
    eigenvalues:
 2.83D-06 3.70D-06 3.89D-06 5.56D-06 6.45D-06 6.92D-06 8.17D-06


      Superposition of Atomic Density Guess
      -------------------------------------

 Sum of atomic energies:        -918.63993171

      Non-variational initial energy
      ------------------------------

 Total energy =    -931.276887
 1-e energy   =   -4166.698960
 2-e energy   =    1766.443784
 HOMO         =      -0.243875
 LUMO         =       0.011106


 Starting SCF solution at     297.0s



 ----------------------------------------------
         Quadratically convergent ROHF

 Convergence threshold     :          1.000E-04
 Maximum no. of iterations :           30
 Final Fock-matrix accuracy:          1.000E-10
 ----------------------------------------------


              iter       energy          gnorm     gmax       time
             ----- ------------------- --------- --------- --------
                 1     -923.0593327710  2.52D+00  1.34D-01    588.8
                 2     -923.4084231678  8.83D-01  4.93D-02   1179.2
                 3     -923.4757893528  6.52D-02  3.81D-03   2171.3
                 4     -923.4764437193  4.03D-03  2.81D-04   3292.3
                 5     -923.4764468559  1.50D-05  2.25D-06   5304.2


       Final RHF  results 
       ------------------ 

         Total SCF energy =   -923.476446855932
      One-electron energy =  -4179.757408184193
      Two-electron energy =   1787.302672627458
 Nuclear repulsion energy =   1468.978288700803

        Time for solution =   5016.0s


             Final eigenvalues
             -----------------

              1      
    1  -20.5468
    2  -20.5220
    3  -20.5169
    4  -15.6467
    5  -15.6086
    6  -15.5927
    7  -15.5850
    8  -15.5713
    9  -11.3752
   10  -11.3564
   11  -11.3492
   12  -11.3218
   13  -11.3063
   14  -11.3002
   15  -11.2709
   16  -11.2654
   17  -11.2552
   18  -11.2383
   19  -11.2377
   20   -1.4081
   21   -1.3845
   22   -1.3788
   23   -1.3565
   24   -1.2580
   25   -1.2414
   26   -1.2130
   27   -1.1777
   28   -1.0846
   29   -1.0548
   30   -1.0121
   31   -0.9879
   32   -0.9228
   33   -0.8936
   34   -0.8459
   35   -0.8230
   36   -0.7988
   37   -0.7874
   38   -0.7768
   39   -0.7597
   40   -0.7395
   41   -0.7251
   42   -0.6876
   43   -0.6767
   44   -0.6594
   45   -0.6450
   46   -0.6312
   47   -0.6291
   48   -0.6167
   49   -0.6132
   50   -0.6105
   51   -0.5991
   52   -0.5918
   53   -0.5810
   54   -0.5680
   55   -0.5633
   56   -0.5554
   57   -0.5477
   58   -0.5421
   59   -0.5333
   60   -0.5272
   61   -0.5202
   62   -0.4987
   63   -0.4496
   64   -0.4479
   65   -0.4393
   66   -0.4153
   67   -0.4109
   68   -0.4067
   69   -0.3983
   70   -0.3879
   71   -0.3265
   72    0.0229
   73    0.0347
   74    0.0403
   75    0.0409
   76    0.0444
   77    0.0528
   78    0.0585
   79    0.0618
   80    0.0645
   81    0.0657

                       ROHF Final Molecular Orbital Analysis
                       -------------------------------------

 Vector   20  Occ=2.000000D+00  E=-1.408056D+00
              MO Center=  1.4D+00,  1.1D+00,  2.1D-01, r^2= 1.5D+00
   Bfn.  Coefficient  Atom+Function         Bfn.  Coefficient  Atom+Function  
  ----- ------------  ---------------      ----- ------------  ---------------
   250      0.361405  16 O  s               249      0.342579  16 O  s         
   224      0.237472  15 C  s         

 Vector   21  Occ=2.000000D+00  E=-1.384489D+00
              MO Center=  2.1D+00, -2.4D+00, -3.2D-01, r^2= 2.2D+00
   Bfn.  Coefficient  Atom+Function         Bfn.  Coefficient  Atom+Function  
  ----- ------------  ---------------      ----- ------------  ---------------
   563      0.374921  33 O  s               562      0.346365  33 O  s         
   537      0.241391  32 C  s         

 Vector   22  Occ=2.000000D+00  E=-1.378785D+00
              MO Center= -1.1D+00,  4.2D+00,  2.1D-01, r^2= 2.0D+00
   Bfn.  Coefficient  Atom+Function         Bfn.  Coefficient  Atom+Function  
  ----- ------------  ---------------      ----- ------------  ---------------
    79      0.343487   6 O  s                80      0.345060   6 O  s         
    54      0.243286   5 C  s                12      0.164013   2 C  s         

 Vector   23  Occ=2.000000D+00  E=-1.356547D+00
              MO Center= -1.9D+00, -3.4D+00, -2.6D-01, r^2= 1.3D+00
   Bfn.  Coefficient  Atom+Function         Bfn.  Coefficient  Atom+Function  
  ----- ------------  ---------------      ----- ------------  ---------------
   470      0.338131  28 N  s               469      0.294911  28 N  s         
   411      0.191905  25 N  s               435      0.192231  26 C  s         
   410      0.167475  25 N  s         

 Vector   24  Occ=2.000000D+00  E=-1.258020D+00
              MO Center=  6.7D-01, -1.5D-01,  4.4D-01, r^2= 2.1D+00
   Bfn.  Coefficient  Atom+Function         Bfn.  Coefficient  Atom+Function  
  ----- ------------  ---------------      ----- ------------  ---------------
   275      0.394337  17 N  s               274      0.336581  17 N  s         
   250     -0.221884  16 O  s               249     -0.175817  16 O  s         
   298      0.150075  18 H  s         

 Vector   25  Occ=2.000000D+00  E=-1.241375D+00
              MO Center= -1.9D-01,  3.5D+00, -2.5D-02, r^2= 1.9D+00
   Bfn.  Coefficient  Atom+Function         Bfn.  Coefficient  Atom+Function  
  ----- ------------  ---------------      ----- ------------  ---------------
   105      0.451414   7 N  s               104      0.341883   7 N  s         
    80     -0.213774   6 O  s                79     -0.186748   6 O  s         
    57      0.173360   5 C  px              128      0.152770   8 H  s         

 Vector   26  Occ=2.000000D+00  E=-1.212971D+00
              MO Center=  2.3D+00, -1.4D+00, -8.9D-01, r^2= 1.7D+00
   Bfn.  Coefficient  Atom+Function         Bfn.  Coefficient  Atom+Function  
  ----- ------------  ---------------      ----- ------------  ---------------
   588      0.400839  34 N  s               587      0.367801  34 N  s         
   563     -0.213384  33 O  s               541      0.184047  32 C  py        
   562     -0.173903  33 O  s               611      0.164814  35 H  s         
   275     -0.156456  17 N  s               620      0.157093  36 H  s         

 Vector   27  Occ=2.000000D+00  E=-1.177653D+00
              MO Center= -1.8D+00, -3.0D+00, -6.2D-03, r^2= 2.3D+00
   Bfn.  Coefficient  Atom+Function         Bfn.  Coefficient  Atom+Function  
  ----- ------------  ---------------      ----- ------------  ---------------
   470     -0.372743  28 N  s               411      0.367249  25 N  s         
   410      0.292086  25 N  s               469     -0.258724  28 N  s         
   385      0.155632  24 C  s         

 Vector   28  Occ=2.000000D+00  E=-1.084607D+00
              MO Center=  6.9D-02, -9.0D-01,  5.7D-01, r^2= 7.3D+00
   Bfn.  Coefficient  Atom+Function         Bfn.  Coefficient  Atom+Function  
  ----- ------------  ---------------      ----- ------------  ---------------
   342      0.212572  21 C  s               308      0.188301  19 C  s         

 Vector   29  Occ=2.000000D+00  E=-1.054833D+00
              MO Center= -4.6D-01,  1.1D+00, -1.2D-01, r^2= 1.1D+01
   Bfn.  Coefficient  Atom+Function         Bfn.  Coefficient  Atom+Function  
  ----- ------------  ---------------      ----- ------------  ---------------
   138      0.204857   9 C  s               172      0.181107  11 C  s         
    12     -0.170357   2 C  s         

 Vector   30  Occ=2.000000D+00  E=-1.012071D+00
              MO Center= -5.1D-01, -1.7D+00,  2.0D-01, r^2= 1.1D+01
   Bfn.  Coefficient  Atom+Function         Bfn.  Coefficient  Atom+Function  
  ----- ------------  ---------------      ----- ------------  ---------------
   503      0.214122  30 C  s               308     -0.184341  19 C  s         
   435     -0.167404  26 C  s               539      0.160674  32 C  s         
   385      0.153275  24 C  s         

 Vector   31  Occ=2.000000D+00  E=-9.878513D-01
              MO Center= -1.6D-01,  4.2D+00, -1.0D-01, r^2= 7.3D+00
   Bfn.  Coefficient  Atom+Function         Bfn.  Coefficient  Atom+Function  
  ----- ------------  ---------------      ----- ------------  ---------------
    11      0.306804   2 C  s                56     -0.301580   5 C  s         
    13      0.206460   2 C  s               172      0.171391  11 C  s         
   225      0.168045  15 C  s                58      0.151957   5 C  py        

 Vector   32  Occ=2.000000D+00  E=-9.227713D-01
              MO Center=  6.5D-02, -1.5D+00,  3.5D-01, r^2= 7.7D+00
   Bfn.  Coefficient  Atom+Function         Bfn.  Coefficient  Atom+Function  
  ----- ------------  ---------------      ----- ------------  ---------------
   342      0.223891  21 C  s               316      0.184991  19 C  pz        
   225     -0.179676  15 C  s               144      0.162634   9 C  px        

 Vector   33  Occ=2.000000D+00  E=-8.935994D-01
              MO Center=  2.4D-02,  1.1D+00, -4.5D-01, r^2= 7.8D+00
   Bfn.  Coefficient  Atom+Function         Bfn.  Coefficient  Atom+Function  
  ----- ------------  ---------------      ----- ------------  ---------------
   144      0.248838   9 C  px              172     -0.217527  11 C  s         
   146      0.196016   9 C  pz              309      0.194766  19 C  s         
   139      0.177523   9 C  s               138      0.161583   9 C  s         
   225     -0.153992  15 C  s         

 Vector   34  Occ=2.000000D+00  E=-8.459266D-01
              MO Center= -1.7D+00, -2.9D+00, -2.0D-01, r^2= 5.8D+00
   Bfn.  Coefficient  Atom+Function         Bfn.  Coefficient  Atom+Function  
  ----- ------------  ---------------      ----- ------------  ---------------
   411      0.253904  25 N  s               493      0.247657  29 H  s         
   473     -0.240727  28 N  py              470      0.217990  28 N  s         
   435     -0.204966  26 C  s               504     -0.184773  30 C  s         
   386     -0.169266  24 C  s               404      0.165907  24 C  dxy       
   389      0.158534  24 C  py              410      0.153802  25 N  s         

 Vector   35  Occ=2.000000D+00  E=-8.230235D-01
              MO Center=  4.6D-01, -3.0D-02,  5.2D-03, r^2= 9.4D+00
   Bfn.  Coefficient  Atom+Function         Bfn.  Coefficient  Atom+Function  
  ----- ------------  ---------------      ----- ------------  ---------------
   309      0.319678  19 C  s               278      0.223693  17 N  py        
   225      0.178576  15 C  s               139      0.173841   9 C  s         
   224      0.158370  15 C  s               108      0.150328   7 N  py        
   298     -0.150733  18 H  s         

 Vector   36  Occ=2.000000D+00  E=-7.988122D-01
              MO Center=  6.4D-01, -1.4D+00, -1.3D-01, r^2= 8.4D+00
   Bfn.  Coefficient  Atom+Function         Bfn.  Coefficient  Atom+Function  
  ----- ------------  ---------------      ----- ------------  ---------------
   316      0.204900  19 C  pz              545      0.182471  32 C  pz        
   592     -0.170627  34 N  pz              537     -0.162901  32 C  s         
   275     -0.161790  17 N  s               539      0.157745  32 C  s         

 Vector   37  Occ=2.000000D+00  E=-7.873503D-01
              MO Center= -4.4D-02,  2.7D+00, -3.5D-02, r^2= 4.7D+00
   Bfn.  Coefficient  Atom+Function         Bfn.  Coefficient  Atom+Function  
  ----- ------------  ---------------      ----- ------------  ---------------
   107      0.311517   7 N  px              225      0.305564  15 C  s         
   128      0.289215   8 H  s               105      0.257910   7 N  s         
   139     -0.257662   9 C  s               144     -0.226297   9 C  px        
    55     -0.201260   5 C  s               163     -0.168953  10 H  s         
   162     -0.162908  10 H  s                80      0.158998   6 O  s         

 Vector   38  Occ=2.000000D+00  E=-7.767857D-01
              MO Center= -1.1D+00, -2.9D+00, -1.4D-01, r^2= 5.8D+00
   Bfn.  Coefficient  Atom+Function         Bfn.  Coefficient  Atom+Function  
  ----- ------------  ---------------      ----- ------------  ---------------
   439      0.215629  26 C  py              527      0.203969  31 H  s         
   473     -0.184526  28 N  py              413     -0.166806  25 N  px        
   459      0.157267  27 H  s               507     -0.151135  30 C  py        

 Vector   39  Occ=2.000000D+00  E=-7.596963D-01
              MO Center= -3.1D-01, -2.3D+00, -1.8D-01, r^2= 9.1D+00
   Bfn.  Coefficient  Atom+Function         Bfn.  Coefficient  Atom+Function  
  ----- ------------  ---------------      ----- ------------  ---------------
   309      0.223015  19 C  s               539      0.201038  32 C  s         
   591      0.198354  34 N  py              493      0.172487  29 H  s         
   611      0.169351  35 H  s               474     -0.159309  28 N  pz        
   472     -0.157020  28 N  px              506      0.157571  30 C  px        
   459      0.150827  27 H  s         

 Vector   40  Occ=2.000000D+00  E=-7.395436D-01
              MO Center=  1.1D+00, -4.3D-02, -2.2D-01, r^2= 7.3D+00
   Bfn.  Coefficient  Atom+Function         Bfn.  Coefficient  Atom+Function  
  ----- ------------  ---------------      ----- ------------  ---------------
   591     -0.256332  34 N  py              225      0.240674  15 C  s         
   611     -0.218332  35 H  s               277      0.197434  17 N  px        
   538      0.186639  32 C  s               145      0.181104   9 C  py        
   314     -0.176127  19 C  px              298     -0.153624  18 H  s         
   542     -0.152455  32 C  pz        

 Vector   41  Occ=2.000000D+00  E=-7.250598D-01
              MO Center=  7.4D-01,  7.2D-02, -1.5D-01, r^2= 1.2D+01
   Bfn.  Coefficient  Atom+Function         Bfn.  Coefficient  Atom+Function  
  ----- ------------  ---------------      ----- ------------  ---------------
   620      0.210338  36 H  s               228      0.169958  15 C  py        
   592     -0.160766  34 N  pz        

 Vector   42  Occ=2.000000D+00  E=-6.875806D-01
              MO Center=  1.0D+00,  3.0D-01,  6.0D-02, r^2= 9.4D+00
   Bfn.  Coefficient  Atom+Function         Bfn.  Coefficient  Atom+Function  
  ----- ------------  ---------------      ----- ------------  ---------------
   252      0.215523  16 O  px              315     -0.188551  19 C  py        
   250      0.170443  16 O  s               278      0.163939  17 N  py        
   620      0.152653  36 H  s         

 Vector   43  Occ=2.000000D+00  E=-6.767453D-01
              MO Center=  9.9D-01,  2.4D-01,  8.5D-02, r^2= 9.8D+00
   Bfn.  Coefficient  Atom+Function         Bfn.  Coefficient  Atom+Function  
  ----- ------------  ---------------      ----- ------------  ---------------
   252      0.173381  16 O  px              592      0.160855  34 N  pz        
   316      0.150805  19 C  pz        

 Vector   44  Occ=2.000000D+00  E=-6.593725D-01
              MO Center= -3.7D-01,  3.4D+00,  1.5D-01, r^2= 8.1D+00
   Bfn.  Coefficient  Atom+Function         Bfn.  Coefficient  Atom+Function  
  ----- ------------  ---------------      ----- ------------  ---------------
    82      0.248587   6 O  px               80     -0.220748   6 O  s         
    58      0.201845   5 C  py               14     -0.175959   2 C  px        
   252      0.168276  16 O  px               13     -0.163492   2 C  s         
    57     -0.158996   5 C  px               83      0.159141   6 O  py        
    12      0.157914   2 C  s               108     -0.154553   7 N  py        

 Vector   45  Occ=2.000000D+00  E=-6.449637D-01
              MO Center=  3.4D-01,  5.5D-01,  2.1D-01, r^2= 9.5D+00
   Bfn.  Coefficient  Atom+Function         Bfn.  Coefficient  Atom+Function  
  ----- ------------  ---------------      ----- ------------  ---------------
   277      0.195947  17 N  px              332     -0.181729  20 H  s         
   139      0.177352   9 C  s               313     -0.167682  19 C  pz        
   316     -0.164618  19 C  pz              162      0.161384  10 H  s         
   141     -0.156021   9 C  px        

 Vector   46  Occ=2.000000D+00  E=-6.311905D-01
              MO Center= -8.9D-02,  3.0D+00, -2.2D-01, r^2= 6.5D+00
   Bfn.  Coefficient  Atom+Function         Bfn.  Coefficient  Atom+Function  
  ----- ------------  ---------------      ----- ------------  ---------------
   139      0.420206   9 C  s               173     -0.388401  11 C  s         
   145     -0.192828   9 C  py              109     -0.180218   7 N  pz        
    16     -0.172926   2 C  pz               59     -0.173185   5 C  pz        
   143     -0.164349   9 C  pz              225     -0.160045  15 C  s         

 Vector   47  Occ=2.000000D+00  E=-6.291206D-01
              MO Center= -1.1D+00, -2.8D+00,  2.3D-02, r^2= 6.5D+00
   Bfn.  Coefficient  Atom+Function         Bfn.  Coefficient  Atom+Function  
  ----- ------------  ---------------      ----- ------------  ---------------
   438      0.244418  26 C  px              459     -0.241931  27 H  s         
   566     -0.168999  33 O  py              472     -0.161752  28 N  px        

 Vector   48  Occ=2.000000D+00  E=-6.166632D-01
              MO Center= -9.7D-01, -1.3D+00, -8.0D-02, r^2= 1.4D+01
   Bfn.  Coefficient  Atom+Function         Bfn.  Coefficient  Atom+Function  
  ----- ------------  ---------------      ----- ------------  ---------------
   474      0.189410  28 N  pz              139     -0.170783   9 C  s         
   473     -0.171046  28 N  py              440      0.160280  26 C  pz        
   477      0.156063  28 N  pz        

 Vector   49  Occ=2.000000D+00  E=-6.132266D-01
              MO Center= -2.8D-01,  5.0D-02, -1.5D-01, r^2= 1.5D+01
   Bfn.  Coefficient  Atom+Function         Bfn.  Coefficient  Atom+Function  
  ----- ------------  ---------------      ----- ------------  ---------------
   252     -0.196191  16 O  px              139      0.190370   9 C  s         
   472     -0.173349  28 N  px               56      0.166581   5 C  s         

 Vector   50  Occ=2.000000D+00  E=-6.105207D-01
              MO Center= -8.5D-01, -3.0D+00, -3.5D-02, r^2= 8.9D+00
   Bfn.  Coefficient  Atom+Function         Bfn.  Coefficient  Atom+Function  
  ----- ------------  ---------------      ----- ------------  ---------------
   527      0.313299  31 H  s               528      0.269168  31 H  s         
   507     -0.265756  30 C  py              437     -0.213413  26 C  s         
   506      0.205405  30 C  px              439     -0.189574  26 C  py        
   473      0.169083  28 N  py              522      0.154836  30 C  dxy       

 Vector   51  Occ=2.000000D+00  E=-5.990727D-01
              MO Center=  8.8D-01, -1.9D+00, -1.8D-01, r^2= 1.0D+01
   Bfn.  Coefficient  Atom+Function         Bfn.  Coefficient  Atom+Function  
  ----- ------------  ---------------      ----- ------------  ---------------
   566      0.348759  33 O  py              541     -0.251002  32 C  py        
   563     -0.190966  33 O  s               569      0.181227  33 O  py        
   538      0.178085  32 C  s               474     -0.158520  28 N  pz        

 Vector   52  Occ=2.000000D+00  E=-5.917580D-01
              MO Center=  5.3D-01,  1.5D+00,  3.1D-02, r^2= 1.1D+01
   Bfn.  Coefficient  Atom+Function         Bfn.  Coefficient  Atom+Function  
  ----- ------------  ---------------      ----- ------------  ---------------
   227      0.189861  15 C  px                1     -0.155819   1 H  s         
   253     -0.155216  16 O  py               16      0.153570   2 C  pz        
   252     -0.153558  16 O  px        

 Vector   53  Occ=2.000000D+00  E=-5.809572D-01
              MO Center= -3.9D-01,  2.6D+00, -4.5D-01, r^2= 8.5D+00
   Bfn.  Coefficient  Atom+Function         Bfn.  Coefficient  Atom+Function  
  ----- ------------  ---------------      ----- ------------  ---------------
   197      0.233022  12 H  s               176     -0.215946  11 C  py        
   196      0.216998  12 H  s                82      0.212905   6 O  px        
    57     -0.198381   5 C  px               15      0.183174   2 C  py        
   214     -0.153645  14 H  s         

 Vector   54  Occ=2.000000D+00  E=-5.679577D-01
              MO Center=  8.9D-01, -1.4D+00,  1.6D-01, r^2= 8.9D+00
   Bfn.  Coefficient  Atom+Function         Bfn.  Coefficient  Atom+Function  
  ----- ------------  ---------------      ----- ------------  ---------------
   590      0.197635  34 N  px              346     -0.174691  21 C  py        
   542      0.174140  32 C  pz              345     -0.166395  21 C  px        
   567      0.155437  33 O  pz              312      0.154343  19 C  py        
   313     -0.152341  19 C  pz        

 Vector   55  Occ=2.000000D+00  E=-5.633234D-01
              MO Center= -4.9D-01,  4.7D+00,  6.3D-02, r^2= 4.9D+00
   Bfn.  Coefficient  Atom+Function         Bfn.  Coefficient  Atom+Function  
  ----- ------------  ---------------      ----- ------------  ---------------
    14      0.290823   2 C  px               36     -0.269182   3 H  s         
    82      0.255208   6 O  px               35     -0.234133   3 H  s         
    44      0.220097   4 H  s                57     -0.194550   5 C  px        

 Vector   56  Occ=2.000000D+00  E=-5.554051D-01
              MO Center=  2.5D-01, -1.2D+00,  5.9D-01, r^2= 1.2D+01
   Bfn.  Coefficient  Atom+Function         Bfn.  Coefficient  Atom+Function  
  ----- ------------  ---------------      ----- ------------  ---------------
   347      0.284589  21 C  pz              276     -0.223811  17 N  s         
   234     -0.210461  15 C  py              388     -0.183366  24 C  px        
   366      0.161675  22 H  s         

 Vector   57  Occ=2.000000D+00  E=-5.477499D-01
              MO Center= -2.2D-01,  2.0D+00, -4.1D-01, r^2= 1.1D+01
   Bfn.  Coefficient  Atom+Function         Bfn.  Coefficient  Atom+Function  
  ----- ------------  ---------------      ----- ------------  ---------------
   206      0.262555  13 H  s               205      0.249732  13 H  s         
   176      0.204056  11 C  py              175     -0.184745  11 C  px        
   253      0.185043  16 O  py              163     -0.178026  10 H  s         
    35      0.167198   3 H  s         

 Vector   58  Occ=2.000000D+00  E=-5.421383D-01
              MO Center=  3.4D-01,  1.8D+00, -9.6D-02, r^2= 1.0D+01
   Bfn.  Coefficient  Atom+Function         Bfn.  Coefficient  Atom+Function  
  ----- ------------  ---------------      ----- ------------  ---------------
   254      0.214213  16 O  pz              257      0.164592  16 O  pz        
   205     -0.158123  13 H  s               143     -0.153615   9 C  pz        
    16      0.151220   2 C  pz              279      0.150843  17 N  pz        
   309     -0.151070  19 C  s         

 Vector   59  Occ=2.000000D+00  E=-5.333157D-01
              MO Center=  2.5D-01, -1.7D+00,  1.0D+00, r^2= 7.3D+00
   Bfn.  Coefficient  Atom+Function         Bfn.  Coefficient  Atom+Function  
  ----- ------------  ---------------      ----- ------------  ---------------
   367      0.335667  22 H  s               366      0.264416  22 H  s         
   375     -0.245721  23 H  s               346     -0.227757  21 C  py        
   345      0.220890  21 C  px              139      0.173311   9 C  s         
   376     -0.160123  23 H  s         

 Vector   60  Occ=2.000000D+00  E=-5.272163D-01
              MO Center= -3.9D-01,  2.2D+00, -7.0D-01, r^2= 6.3D+00
   Bfn.  Coefficient  Atom+Function         Bfn.  Coefficient  Atom+Function  
  ----- ------------  ---------------      ----- ------------  ---------------
   163      0.306681  10 H  s               215      0.268898  14 H  s         
   214      0.240111  14 H  s               197     -0.223703  12 H  s         
   175      0.220209  11 C  px              196     -0.220949  12 H  s         
   162      0.192735  10 H  s               141     -0.169860   9 C  px        
   176      0.163331  11 C  py        

 Vector   61  Occ=2.000000D+00  E=-5.202005D-01
              MO Center=  7.4D-01, -1.5D+00,  5.3D-01, r^2= 6.4D+00
   Bfn.  Coefficient  Atom+Function         Bfn.  Coefficient  Atom+Function  
  ----- ------------  ---------------      ----- ------------  ---------------
   348      0.281530  21 C  px              332     -0.245763  20 H  s         
   349      0.224372  21 C  py              343      0.210562  21 C  s         
   311     -0.206780  19 C  px              388     -0.184960  24 C  px        
   309     -0.178905  19 C  s               345      0.166515  21 C  px        
   567      0.160286  33 O  pz              316     -0.150050  19 C  pz        

 Vector   62  Occ=2.000000D+00  E=-4.986996D-01
              MO Center= -6.5D-01,  3.6D+00, -1.2D-01, r^2= 5.2D+00
   Bfn.  Coefficient  Atom+Function         Bfn.  Coefficient  Atom+Function  
  ----- ------------  ---------------      ----- ------------  ---------------
    84      0.320070   6 O  pz               87      0.233903   6 O  pz        
   143     -0.229034   9 C  pz               59      0.207367   5 C  pz        
   177      0.203648  11 C  pz               16     -0.168172   2 C  pz        
   162     -0.155982  10 H  s                 2      0.150214   1 H  s         

 Vector   63  Occ=2.000000D+00  E=-4.496196D-01
              MO Center= -3.9D-01, -1.1D+00,  2.9D-01, r^2= 7.6D+00
   Bfn.  Coefficient  Atom+Function         Bfn.  Coefficient  Atom+Function  
  ----- ------------  ---------------      ----- ------------  ---------------
   414      0.335633  25 N  py              417      0.247342  25 N  py        
   411      0.227004  25 N  s               254      0.204966  16 O  pz        
   412      0.189255  25 N  s               253     -0.181474  16 O  py        
   257      0.159791  16 O  pz              256     -0.153705  16 O  py        
   389     -0.150036  24 C  py        

 Vector   64  Occ=2.000000D+00  E=-4.478755D-01
              MO Center=  3.7D-01, -1.4D+00,  1.9D-01, r^2= 7.4D+00
   Bfn.  Coefficient  Atom+Function         Bfn.  Coefficient  Atom+Function  
  ----- ------------  ---------------      ----- ------------  ---------------
   414     -0.265161  25 N  py              567     -0.264440  33 O  pz        
   254      0.248511  16 O  pz              411     -0.240566  25 N  s         
   570     -0.206334  33 O  pz              257      0.194354  16 O  pz        
   279     -0.192367  17 N  pz              417     -0.182673  25 N  py        
   282     -0.176620  17 N  pz              565      0.167189  33 O  px        

 Vector   65  Occ=2.000000D+00  E=-4.392701D-01
              MO Center=  1.1D+00,  4.2D-01,  6.5D-02, r^2= 5.9D+00
   Bfn.  Coefficient  Atom+Function         Bfn.  Coefficient  Atom+Function  
  ----- ------------  ---------------      ----- ------------  ---------------
   253      0.416119  16 O  py              256      0.349799  16 O  py        
   141     -0.170997   9 C  px              565      0.171531  33 O  px        
   275      0.169497  17 N  s               279     -0.168620  17 N  pz        

 Vector   66  Occ=2.000000D+00  E=-4.153318D-01
              MO Center= -1.2D+00,  4.3D+00,  2.4D-01, r^2= 4.1D+00
   Bfn.  Coefficient  Atom+Function         Bfn.  Coefficient  Atom+Function  
  ----- ------------  ---------------      ----- ------------  ---------------
    83      0.534590   6 O  py               13      0.440111   2 C  s         
    86      0.424172   6 O  py               64     -0.263021   5 C  py        
    56     -0.244546   5 C  s               105      0.244538   7 N  s         
   145     -0.223886   9 C  py               18      0.203997   2 C  py        
   139      0.181930   9 C  s               225     -0.175611  15 C  s         

 Vector   67  Occ=2.000000D+00  E=-4.108754D-01
              MO Center=  2.5D-02, -2.0D+00, -1.1D-01, r^2= 9.2D+00
   Bfn.  Coefficient  Atom+Function         Bfn.  Coefficient  Atom+Function  
  ----- ------------  ---------------      ----- ------------  ---------------
   567      0.292739  33 O  pz              570      0.230067  33 O  pz        
   415     -0.215411  25 N  pz              418     -0.188730  25 N  pz        
   474      0.187648  28 N  pz              590     -0.188174  34 N  px        
   477      0.162550  28 N  pz              593     -0.155576  34 N  px        

 Vector   68  Occ=2.000000D+00  E=-4.066975D-01
              MO Center=  8.2D-01, -2.2D+00, -4.3D-01, r^2= 7.1D+00
   Bfn.  Coefficient  Atom+Function         Bfn.  Coefficient  Atom+Function  
  ----- ------------  ---------------      ----- ------------  ---------------
   590      0.302755  34 N  px              593      0.263824  34 N  px        
   565     -0.231688  33 O  px              567     -0.208058  33 O  pz        
   568     -0.187950  33 O  px              415     -0.176270  25 N  pz        
   474      0.169115  28 N  pz              592      0.162716  34 N  pz        
   570     -0.158341  33 O  pz              477      0.156069  28 N  pz        

 Vector   69  Occ=2.000000D+00  E=-3.982990D-01
              MO Center=  4.0D-01,  2.5D-01, -1.4D-02, r^2= 1.2D+01
   Bfn.  Coefficient  Atom+Function         Bfn.  Coefficient  Atom+Function  
  ----- ------------  ---------------      ----- ------------  ---------------
   109      0.255734   7 N  pz              112      0.237430   7 N  pz        
   565     -0.233016  33 O  px              279     -0.227306  17 N  pz        
   282     -0.206073  17 N  pz               84     -0.203243   6 O  pz        
   276     -0.197373  17 N  s               568     -0.184542  33 O  px        
   234     -0.161206  15 C  py               87     -0.155787   6 O  pz        

 Vector   70  Occ=2.000000D+00  E=-3.879316D-01
              MO Center=  4.3D-02,  1.8D+00,  3.4D-02, r^2= 9.2D+00
   Bfn.  Coefficient  Atom+Function         Bfn.  Coefficient  Atom+Function  
  ----- ------------  ---------------      ----- ------------  ---------------
   109      0.352789   7 N  pz              112      0.323786   7 N  pz        
    84     -0.268890   6 O  pz              279      0.213292  17 N  pz        
    87     -0.206968   6 O  pz              282      0.199483  17 N  pz        
   139     -0.182577   9 C  s                56      0.154904   5 C  s         

 Vector   71  Occ=2.000000D+00  E=-3.264588D-01
              MO Center= -1.3D+00, -3.3D+00,  1.6D-01, r^2= 2.9D+00
   Bfn.  Coefficient  Atom+Function         Bfn.  Coefficient  Atom+Function  
  ----- ------------  ---------------      ----- ------------  ---------------
   508      0.276239  30 C  pz              390      0.244346  24 C  pz        
   440     -0.227736  26 C  pz              511      0.203622  30 C  pz        
   393      0.195788  24 C  pz              148     -0.178504   9 C  py        
   284     -0.171214  17 N  py              506     -0.167372  30 C  px        
   507     -0.167617  30 C  py              309      0.152117  19 C  s         

 Vector   72  Occ=0.000000D+00  E= 2.287504D-02
              MO Center= -3.2D+00, -4.6D+00, -2.2D+00, r^2= 1.7D+01
   Bfn.  Coefficient  Atom+Function         Bfn.  Coefficient  Atom+Function  
  ----- ------------  ---------------      ----- ------------  ---------------
   300      2.474695  18 H  s               495     -2.225795  29 H  s         
   461     -2.054023  27 H  s               396     -1.916260  24 C  pz        
   471     -1.897403  28 N  s               394     -1.675524  24 C  px        
   539      1.649275  32 C  s               310      1.434163  19 C  s         
   148      1.421353   9 C  py              460     -1.376024  27 H  s         

 Vector   73  Occ=0.000000D+00  E= 3.467622D-02
              MO Center=  1.6D+00,  3.0D+00, -1.7D+00, r^2= 3.2D+01
   Bfn.  Coefficient  Atom+Function         Bfn.  Coefficient  Atom+Function  
  ----- ------------  ---------------      ----- ------------  ---------------
   148      3.832560   9 C  py              106     -2.927956   7 N  s         
   174      2.574283  11 C  s                64      2.447709   5 C  py        
   539      2.062622  32 C  s                 3     -1.682102   1 H  s         
   589     -1.662746  34 N  s               216     -1.622578  14 H  s         
   310      1.595697  19 C  s               300      1.517248  18 H  s         

 Vector   74  Occ=0.000000D+00  E= 4.031067D-02
              MO Center= -1.6D+00, -3.0D+00, -3.8D-01, r^2= 3.6D+01
   Bfn.  Coefficient  Atom+Function         Bfn.  Coefficient  Atom+Function  
  ----- ------------  ---------------      ----- ------------  ---------------
   461      4.211102  27 H  s               444      2.992861  26 C  px        
   529     -2.930614  31 H  s               512      1.747151  30 C  px        
   513     -1.644832  30 C  py              334     -1.470339  20 H  s         
   394      1.472637  24 C  px              396      1.413495  24 C  pz        
   528     -1.406484  31 H  s               300      1.389198  18 H  s         

 Vector   75  Occ=0.000000D+00  E= 4.091398D-02
              MO Center=  5.2D-01,  4.8D-02,  5.5D-01, r^2= 4.0D+01
   Bfn.  Coefficient  Atom+Function         Bfn.  Coefficient  Atom+Function  
  ----- ------------  ---------------      ----- ------------  ---------------
   300      3.537693  18 H  s               149      2.852910   9 C  pz        
   589      2.819721  34 N  s               377     -2.795170  23 H  s         
   148      2.650480   9 C  py              164     -2.460095  10 H  s         
   234     -2.425433  15 C  py              174      2.197751  11 C  s         
   461     -2.208096  27 H  s               548      2.095438  32 C  pz        

 Vector   76  Occ=0.000000D+00  E= 4.436340D-02
              MO Center=  4.3D-01,  1.4D+00, -1.4D-02, r^2= 5.1D+01
   Bfn.  Coefficient  Atom+Function         Bfn.  Coefficient  Atom+Function  
  ----- ------------  ---------------      ----- ------------  ---------------
    64      4.014982   5 C  py              300     -3.347923  18 H  s         
   148      2.699494   9 C  py              377      1.931084  23 H  s         
    12      1.903378   2 C  s                 3     -1.875002   1 H  s         
   461      1.768084  27 H  s               495     -1.615718  29 H  s         
    13     -1.594162   2 C  s               353     -1.572005  21 C  pz        

 Vector   77  Occ=0.000000D+00  E= 5.276292D-02
              MO Center=  7.4D-01,  3.9D-01, -2.9D-01, r^2= 4.7D+01
   Bfn.  Coefficient  Atom+Function         Bfn.  Coefficient  Atom+Function  
  ----- ------------  ---------------      ----- ------------  ---------------
   334      2.729033  20 H  s               529     -2.644591  31 H  s         
   512      2.382595  30 C  px               46      2.299936   4 H  s         
   276     -2.282493  17 N  s               368     -2.234955  22 H  s         
   207     -2.139955  13 H  s               149     -1.897946   9 C  pz        
   173      1.903853  11 C  s               387     -1.747946  24 C  s         

 Vector   78  Occ=0.000000D+00  E= 5.852665D-02
              MO Center=  6.0D-01,  3.7D+00, -5.1D-01, r^2= 4.4D+01
   Bfn.  Coefficient  Atom+Function         Bfn.  Coefficient  Atom+Function  
  ----- ------------  ---------------      ----- ------------  ---------------
    37      3.863135   3 H  s               130     -2.498594   8 H  s         
     3     -2.474961   1 H  s               174     -2.223958  11 C  s         
   529      2.095327  31 H  s               589      2.013844  34 N  s         
   106     -1.937759   7 N  s               622      1.841071  36 H  s         
    64     -1.800072   5 C  py              276      1.712164  17 N  s         

 Vector   79  Occ=0.000000D+00  E= 6.181829D-02
              MO Center= -1.0D+00, -3.8D-01, -1.1D+00, r^2= 4.2D+01
   Bfn.  Coefficient  Atom+Function         Bfn.  Coefficient  Atom+Function  
  ----- ------------  ---------------      ----- ------------  ---------------
   198      3.774352  12 H  s               461     -3.549647  27 H  s         
   539      2.926991  32 C  s               589     -2.869651  34 N  s         
   334      2.796747  20 H  s               471      2.540550  28 N  s         
   319     -2.376431  19 C  pz               56     -2.142755   5 C  s         
   173     -2.093522  11 C  s                 3     -2.047095   1 H  s         

 Vector   80  Occ=0.000000D+00  E= 6.448980D-02
              MO Center=  4.0D-01, -1.1D+00,  2.3D+00, r^2= 3.1D+01
   Bfn.  Coefficient  Atom+Function         Bfn.  Coefficient  Atom+Function  
  ----- ------------  ---------------      ----- ------------  ---------------
   377      5.378102  23 H  s               368     -4.229317  22 H  s         
   334     -3.999044  20 H  s               352     -3.285286  21 C  py        
   164      3.256102  10 H  s                56     -2.719215   5 C  s         
   319      2.638922  19 C  pz              234     -2.557919  15 C  py        
   148      2.089500   9 C  py              198     -1.970031  12 H  s         

 Vector   81  Occ=0.000000D+00  E= 6.568774D-02
              MO Center=  3.5D-01,  1.1D+00,  6.9D-01, r^2= 5.6D+01
   Bfn.  Coefficient  Atom+Function         Bfn.  Coefficient  Atom+Function  
  ----- ------------  ---------------      ----- ------------  ---------------
   529      4.609399  31 H  s               234     -3.627066  15 C  py        
    37     -3.512593   3 H  s                64      3.292493   5 C  py        
    13     -3.272336   2 C  s               437     -2.909155  26 C  s         
    46      2.888445   4 H  s               512     -2.746028  30 C  px        
   106      2.715059   7 N  s               130      2.316778   8 H  s         

 Vector   82  Occ=0.000000D+00  E= 7.174741D-02
              MO Center= -3.6D-01,  8.1D-01,  1.3D-01, r^2= 4.2D+01
   Bfn.  Coefficient  Atom+Function         Bfn.  Coefficient  Atom+Function  
  ----- ------------  ---------------      ----- ------------  ---------------
   207      4.614932  13 H  s               198     -3.965906  12 H  s         
    64      3.730214   5 C  py              334      3.262816  20 H  s         
   368     -3.203894  22 H  s               164      3.080177  10 H  s         
    13     -2.981514   2 C  s               148      2.911487   9 C  py        
   216     -2.795900  14 H  s                46     -2.731465   4 H  s         

 Vector   83  Occ=0.000000D+00  E= 7.715254D-02
              MO Center=  3.4D-01,  2.2D+00, -1.6D+00, r^2= 4.2D+01
   Bfn.  Coefficient  Atom+Function         Bfn.  Coefficient  Atom+Function  
  ----- ------------  ---------------      ----- ------------  ---------------
   198      5.495557  12 H  s               216     -3.955602  14 H  s         
     3      3.920578   1 H  s                13     -3.866569   2 C  s         
    37     -3.291664   3 H  s               114      2.770543   7 N  py        
   377      2.763077  23 H  s               174      2.499049  11 C  s         
   351      2.358454  21 C  px              318      2.328937  19 C  py        

 Vector   84  Occ=0.000000D+00  E= 8.393707D-02
              MO Center=  3.5D-01,  1.8D+00, -1.3D+00, r^2= 4.0D+01
   Bfn.  Coefficient  Atom+Function         Bfn.  Coefficient  Atom+Function  
  ----- ------------  ---------------      ----- ------------  ---------------
   300      6.813557  18 H  s               613     -5.926107  35 H  s         
   198     -5.866242  12 H  s                56     -5.481917   5 C  s         
   539      4.822172  32 C  s               148      4.276868   9 C  py        
   164     -4.213215  10 H  s               207      3.755189  13 H  s         
   130     -3.505914   8 H  s                46      3.406549   4 H  s         

 Vector   85  Occ=0.000000D+00  E= 8.529562D-02
              MO Center= -7.2D-02,  6.0D-02, -7.4D-01, r^2= 4.5D+01
   Bfn.  Coefficient  Atom+Function         Bfn.  Coefficient  Atom+Function  
  ----- ------------  ---------------      ----- ------------  ---------------
    13      8.428771   2 C  s               216      5.944604  14 H  s         
    64     -5.667976   5 C  py              300      5.676295  18 H  s         
   207     -5.532681  13 H  s               334      4.317709  20 H  s         
   310     -4.009521  19 C  s                56     -3.958705   5 C  s         
   368     -3.930457  22 H  s               529      3.872225  31 H  s         

 Vector   86  Occ=0.000000D+00  E= 8.968081D-02
              MO Center= -5.7D-01, -9.6D-01,  1.7D+00, r^2= 3.8D+01
   Bfn.  Coefficient  Atom+Function         Bfn.  Coefficient  Atom+Function  
  ----- ------------  ---------------      ----- ------------  ---------------
   368      7.176106  22 H  s               164      6.612688  10 H  s         
    56     -6.326145   5 C  s               352      4.166766  21 C  py        
   377     -3.912166  23 H  s               147      3.602661   9 C  px        
   387      3.546266  24 C  s                13      3.100078   2 C  s         
   216      2.773516  14 H  s               334     -2.769447  20 H  s         

 Vector   87  Occ=0.000000D+00  E= 9.859527D-02
              MO Center= -6.2D-01,  9.0D-01,  2.5D-02, r^2= 4.3D+01
   Bfn.  Coefficient  Atom+Function         Bfn.  Coefficient  Atom+Function  
  ----- ------------  ---------------      ----- ------------  ---------------
    13     11.955443   2 C  s                56     -9.352903   5 C  s         
   387      6.115788  24 C  s               148     -5.264415   9 C  py        
    64     -5.062155   5 C  py              310     -5.058856  19 C  s         
   226     -4.549186  15 C  s               351      4.137044  21 C  px        
   318      3.752508  19 C  py              174      3.346159  11 C  s         

 Vector   88  Occ=0.000000D+00  E= 1.045909D-01
              MO Center= -6.4D-01, -2.7D-01,  2.1D-01, r^2= 4.1D+01
   Bfn.  Coefficient  Atom+Function         Bfn.  Coefficient  Atom+Function  
  ----- ------------  ---------------      ----- ------------  ---------------
    56     14.960799   5 C  s                13    -12.867570   2 C  s         
   539     -7.467480  32 C  s               300     -5.585186  18 H  s         
   437     -4.962022  26 C  s               318      4.902741  19 C  py        
   198     -4.488374  12 H  s               505      4.397128  30 C  s         
   387      4.352202  24 C  s                64      4.070751   5 C  py        

 Vector   89  Occ=0.000000D+00  E= 1.101871D-01
              MO Center=  2.0D-01, -4.7D-01, -3.5D-01, r^2= 3.8D+01
   Bfn.  Coefficient  Atom+Function         Bfn.  Coefficient  Atom+Function  
  ----- ------------  ---------------      ----- ------------  ---------------
   539     10.101420  32 C  s               234      6.228011  15 C  py        
    56     -5.843162   5 C  s                13      5.184341   2 C  s         
   613      4.406266  35 H  s               130     -4.206395   8 H  s         
   317     -3.983090  19 C  px              319      3.881598  19 C  pz        
   395      3.642578  24 C  py              548      3.472977  32 C  pz        

 Vector   90  Occ=0.000000D+00  E= 1.150160D-01
              MO Center=  9.6D-01, -2.1D+00,  2.1D-01, r^2= 3.3D+01
   Bfn.  Coefficient  Atom+Function         Bfn.  Coefficient  Atom+Function  
  ----- ------------  ---------------      ----- ------------  ---------------
   539     18.254681  32 C  s                56    -13.044256   5 C  s         
    13      8.897230   2 C  s               234      8.617838  15 C  py        
   505     -6.259552  30 C  s               546     -6.048487  32 C  px        
[...]
   437     -7.706159  26 C  s               276      7.617044  17 N  s         
   300      7.491195  18 H  s                12     -7.373016   2 C  s         
   387     -7.339366  24 C  s               344     -6.626983  21 C  s         
   284     -6.402557  17 N  py              589      6.094444  34 N  s         

 Vector  179  Occ=0.000000D+00  E= 4.368337D-01
              MO Center= -4.0D-01, -1.1D+00,  1.8D-01, r^2= 2.0D+01
   Bfn.  Coefficient  Atom+Function         Bfn.  Coefficient  Atom+Function  
  ----- ------------  ---------------      ----- ------------  ---------------
   437     18.345669  26 C  s               148    -14.244996   9 C  py        
   234     13.795853  15 C  py              412     -9.243339  25 N  s         
   283      8.231747  17 N  px              344      7.526667  21 C  s         
   114      6.534896   7 N  py              318      6.480605  19 C  py        
   233     -6.325258  15 C  px              471     -5.387857  28 N  s         

 Vector  180  Occ=0.000000D+00  E= 4.407082D-01
              MO Center=  3.6D-01,  3.2D+00,  2.0D-01, r^2= 2.3D+01
   Bfn.  Coefficient  Atom+Function         Bfn.  Coefficient  Atom+Function  
  ----- ------------  ---------------      ----- ------------  ---------------
    13      9.481362   2 C  s               114     -7.372704   7 N  py        
   148      6.902494   9 C  py              539      6.354042  32 C  s         
   471      6.321806  28 N  s               300      5.367564  18 H  s         
    55      5.066132   5 C  s               351      4.741662  21 C  px        
   396      4.707697  24 C  pz              412      4.577473  25 N  s         

 Vector  181  Occ=0.000000D+00  E= 4.455488D-01
              MO Center= -3.8D-01,  1.3D+00,  1.7D-01, r^2= 3.2D+01
   Bfn.  Coefficient  Atom+Function         Bfn.  Coefficient  Atom+Function  
  ----- ------------  ---------------      ----- ------------  ---------------
   539     17.319694  32 C  s               318     12.945343  19 C  py        
   396     10.834898  24 C  pz               56    -10.310451   5 C  s         
   234      9.751822  15 C  py              148      9.661757   9 C  py        
   471      9.191880  28 N  s               351      9.123950  21 C  px        
   226     -8.723931  15 C  s               437      7.999290  26 C  s         

 Vector  182  Occ=0.000000D+00  E= 4.496327D-01
              MO Center= -3.0D-01,  1.7D+00,  1.8D-01, r^2= 2.4D+01
   Bfn.  Coefficient  Atom+Function         Bfn.  Coefficient  Atom+Function  
  ----- ------------  ---------------      ----- ------------  ---------------
   539     16.038225  32 C  s               148     10.101338   9 C  py        
   284      8.042259  17 N  py              396      6.923050  24 C  pz        
   589     -6.875901  34 N  s               317     -6.838155  19 C  px        
   147     -6.799998   9 C  px              234      6.319848  15 C  py        
   471      5.906110  28 N  s                 2      5.142331   1 H  s         

 Vector  183  Occ=0.000000D+00  E= 4.525180D-01
              MO Center=  6.2D-02,  2.3D-01,  2.7D-01, r^2= 2.4D+01
   Bfn.  Coefficient  Atom+Function         Bfn.  Coefficient  Atom+Function  
  ----- ------------  ---------------      ----- ------------  ---------------
   437     16.982547  26 C  s               589    -16.460801  34 N  s         
   148     15.944456   9 C  py               56    -15.114529   5 C  s         
   539     12.595776  32 C  s               284     10.983204  17 N  py        
   396      8.195260  24 C  pz              505     -8.101375  30 C  s         
   351      7.209006  21 C  px              367     -6.903418  22 H  s         

 Vector  184  Occ=0.000000D+00  E= 4.572552D-01
              MO Center= -1.6D-01, -3.9D-01, -6.8D-01, r^2= 2.1D+01
   Bfn.  Coefficient  Atom+Function         Bfn.  Coefficient  Atom+Function  
  ----- ------------  ---------------      ----- ------------  ---------------
   174     16.251808  11 C  s               412     11.208757  25 N  s         
   276    -11.107744  17 N  s               319    -10.263958  19 C  pz        
   215     -9.226192  14 H  s               173      8.907755  11 C  s         
   234     -7.345758  15 C  py               56     -7.280113   5 C  s         
   351      6.923897  21 C  px              310     -6.834417  19 C  s         

 Vector  185  Occ=0.000000D+00  E= 4.612362D-01
              MO Center= -3.9D-01,  4.9D-01,  2.3D-01, r^2= 2.3D+01
   Bfn.  Coefficient  Atom+Function         Bfn.  Coefficient  Atom+Function  
  ----- ------------  ---------------      ----- ------------  ---------------
    56     13.533230   5 C  s               174    -11.759575  11 C  s         
   319     11.407620  19 C  pz              396    -10.499616  24 C  pz        
   173    -10.075565  11 C  s               376      8.403186  23 H  s         
   147     -8.300492   9 C  px              310      7.636801  19 C  s         
   206      7.540060  13 H  s               351     -7.473989  21 C  px        

 Vector  186  Occ=0.000000D+00  E= 4.625094D-01
              MO Center= -2.6D-01,  1.1D+00, -3.7D-01, r^2= 2.4D+01
   Bfn.  Coefficient  Atom+Function         Bfn.  Coefficient  Atom+Function  
  ----- ------------  ---------------      ----- ------------  ---------------
   276     12.061814  17 N  s               437     11.973805  26 C  s         
   539    -11.875665  32 C  s               147     -8.443734   9 C  px        
   589      7.324310  34 N  s               394      7.090272  24 C  px        
   114     -6.765958   7 N  py              310     -6.297312  19 C  s         
   412     -6.117418  25 N  s                13      5.700429   2 C  s         

 Vector  187  Occ=0.000000D+00  E= 4.673337D-01
              MO Center=  5.1D-02,  1.2D+00,  6.4D-02, r^2= 2.2D+01
   Bfn.  Coefficient  Atom+Function         Bfn.  Coefficient  Atom+Function  
  ----- ------------  ---------------      ----- ------------  ---------------
   276     23.855098  17 N  s                13     21.307528   2 C  s         
   234     19.065747  15 C  py              344    -12.478240  21 C  s         
    64    -11.975645   5 C  py               56    -11.525089   5 C  s         
   140    -10.297006   9 C  s               300      9.979309  18 H  s         
   226     -8.163808  15 C  s               148     -7.757403   9 C  py        

 Vector  188  Occ=0.000000D+00  E= 4.720558D-01
              MO Center=  2.9D-01, -3.3D-01, -6.8D-02, r^2= 2.2D+01
   Bfn.  Coefficient  Atom+Function         Bfn.  Coefficient  Atom+Function  
  ----- ------------  ---------------      ----- ------------  ---------------
   174    -14.785470  11 C  s                56     14.225884   5 C  s         
   319      9.848851  19 C  pz              437     -8.420364  26 C  s         
    13     -8.118587   2 C  s               114     -7.177053   7 N  py        
   300      6.791630  18 H  s               149     -6.740202   9 C  pz        
   589      6.470753  34 N  s                12     -6.137675   2 C  s         

 Vector  189  Occ=0.000000D+00  E= 4.761617D-01
              MO Center= -4.2D-01,  3.6D-01, -4.5D-01, r^2= 2.2D+01
   Bfn.  Coefficient  Atom+Function         Bfn.  Coefficient  Atom+Function  
  ----- ------------  ---------------      ----- ------------  ---------------
   387     20.960060  24 C  s               226    -17.095541  15 C  s         
   318     16.078436  19 C  py               13     12.972680   2 C  s         
   396     12.313111  24 C  pz              174    -11.958899  11 C  s         
   351     11.376577  21 C  px              310    -11.066270  19 C  s         
   234     10.162640  15 C  py              539      9.892600  32 C  s         

 Vector  190  Occ=0.000000D+00  E= 4.793621D-01
              MO Center= -4.3D-01,  1.2D-01,  7.3D-02, r^2= 2.4D+01
   Bfn.  Coefficient  Atom+Function         Bfn.  Coefficient  Atom+Function  
  ----- ------------  ---------------      ----- ------------  ---------------
    13     22.341757   2 C  s               539     19.480452  32 C  s         
    64    -13.107340   5 C  py              319     11.236957  19 C  pz        
   344     -9.273002  21 C  s               505     -9.256701  30 C  s         
   318     -8.378842  19 C  py              310      8.271525  19 C  s         
   387     -7.842227  24 C  s                56     -7.441938   5 C  s         

 Vector  191  Occ=0.000000D+00  E= 4.831693D-01
              MO Center= -2.9D-01, -2.0D-01, -2.9D-01, r^2= 2.4D+01
   Bfn.  Coefficient  Atom+Function         Bfn.  Coefficient  Atom+Function  
  ----- ------------  ---------------      ----- ------------  ---------------
    56    -19.168279   5 C  s                13     17.887803   2 C  s         
   174     15.481653  11 C  s               233      9.336168  15 C  px        
   149      9.133080   9 C  pz               12      8.666816   2 C  s         
   589     -7.870872  34 N  s                 2     -7.477456   1 H  s         
    64     -6.964413   5 C  py              387      6.534376  24 C  s         

 Vector  192  Occ=0.000000D+00  E= 4.840778D-01
              MO Center=  3.7D-01,  2.2D-01, -8.1D-02, r^2= 2.1D+01
   Bfn.  Coefficient  Atom+Function         Bfn.  Coefficient  Atom+Function  
  ----- ------------  ---------------      ----- ------------  ---------------
   148    -24.660029   9 C  py               56     22.643501   5 C  s         
   284    -20.299702  17 N  py              539    -18.583642  32 C  s         
   233    -15.748396  15 C  px              437     11.470487  26 C  s         
   317     11.188307  19 C  px              300    -10.122223  18 H  s         
    13     -8.453154   2 C  s               234      7.813062  15 C  py        

 Vector  193  Occ=0.000000D+00  E= 4.934014D-01
              MO Center=  2.3D-01,  1.5D+00, -5.9D-01, r^2= 2.4D+01
   Bfn.  Coefficient  Atom+Function         Bfn.  Coefficient  Atom+Function  
  ----- ------------  ---------------      ----- ------------  ---------------
    13     17.660315   2 C  s               148    -15.754428   9 C  py        
   106     11.931008   7 N  s                56    -11.426967   5 C  s         
   387      8.176155  24 C  s                64     -8.073525   5 C  py        
    12      7.167404   2 C  s               182      5.519003  11 C  py        
   226     -5.349541  15 C  s               284     -5.337697  17 N  py        

 Vector  194  Occ=0.000000D+00  E= 4.975501D-01
              MO Center=  5.1D-01,  1.0D+00, -1.8D-01, r^2= 2.2D+01
   Bfn.  Coefficient  Atom+Function         Bfn.  Coefficient  Atom+Function  
  ----- ------------  ---------------      ----- ------------  ---------------
    13     31.315314   2 C  s                56    -22.504430   5 C  s         
   148    -15.436049   9 C  py              106     14.006121   7 N  s         
    64    -13.084694   5 C  py              310    -12.315492  19 C  s         
   140     -9.092332   9 C  s                12      8.898638   2 C  s         
   226     -8.314456  15 C  s                45     -7.631181   4 H  s         

 Vector  195  Occ=0.000000D+00  E= 5.004182D-01
              MO Center=  1.3D-01,  5.7D-01, -2.8D-01, r^2= 2.1D+01
   Bfn.  Coefficient  Atom+Function         Bfn.  Coefficient  Atom+Function  
  ----- ------------  ---------------      ----- ------------  ---------------
   148     18.956477   9 C  py              174     14.731853  11 C  s         
    56    -14.098315   5 C  s               226     13.566421  15 C  s         
   387    -11.435725  24 C  s               318    -10.386583  19 C  py        
   276      8.886860  17 N  s               173      8.219489  11 C  s         
    64      7.948757   5 C  py              215     -7.619258  14 H  s         


 center of mass
 --------------
 x =   0.00562393 y =  -0.06155033 z =   0.02312609

 moments of inertia (a.u.)
 ------------------
        9383.237946708625           0.000000000000           0.000000000003
           0.000000000000        2812.569789250695           0.000000000001
           0.000000000003           0.000000000001       11098.365835508212

  Mulliken analysis of the total density
  --------------------------------------

    Atom       Charge   Shell Charges
 -----------   ------   -------------------------------------------------------
    1 H    1     0.83   0.76  0.10  0.01  0.03 -0.07
    2 C    6     6.50   2.01  0.66  0.30  0.28  2.06  1.04 -0.04  0.06  0.11
    3 H    1     0.97   0.76  0.22  0.01  0.03 -0.06
    4 H    1     0.81   0.76  0.08  0.01  0.03 -0.06
    5 C    6     5.00   2.01  0.68  0.09 -0.15  1.90  0.30 -0.08  0.24  0.02
    6 O    8     8.72   2.01  0.82  0.99  0.15  2.79  1.82  0.14  0.01 -0.02
    7 N    7     7.61   2.01  0.72  0.88 -0.06  2.46  1.45  0.05  0.05  0.05
    8 H    1     1.01   0.75  0.23  0.00  0.06 -0.03
    9 C    6     6.37   2.01  0.66  0.16  0.00  2.00  1.36 -0.09  0.14  0.14
   10 H    1     1.12   0.78  0.33 -0.01  0.03  0.00
   11 C    6     5.62   2.01  0.67  0.19  0.20  2.04  0.44  0.01  0.07  0.00
   12 H    1     0.91   0.77  0.15  0.03  0.03 -0.07
   13 H    1     1.01   0.77  0.29 -0.00  0.03 -0.06
   14 H    1     0.90   0.77  0.17  0.00  0.03 -0.08
   15 C    6     4.65   2.01  0.68 -0.01  0.01  1.89  0.18 -0.02  0.23 -0.33
   16 O    8     8.92   2.01  0.82  1.03  0.20  2.79  1.88  0.17  0.01 -0.00
   17 N    7     7.48   2.01  0.72  0.83 -0.09  2.45  1.44  0.04  0.05  0.02
   18 H    1     0.89   0.74  0.24 -0.03  0.06 -0.12
   19 C    6     6.60   2.01  0.67  0.07  0.05  1.99  1.38  0.15  0.14  0.14
   20 H    1     0.96   0.78  0.16  0.00  0.03 -0.01
   21 C    6     5.70   2.01  0.66  0.17 -0.04  2.05  0.74 -0.00  0.09  0.02
   22 H    1     1.02   0.77  0.27  0.00  0.03 -0.05
   23 H    1     0.83   0.78  0.10 -0.01  0.03 -0.07
   24 C    6     5.70   2.01  0.66  0.08 -0.19  2.00  0.63  0.17  0.14  0.20
   25 N    7     8.01   2.01  0.76  1.03  0.06  2.27  1.68  0.08  0.05  0.07
   26 C    6     4.97   2.01  0.66  0.01 -0.09  1.96  0.45  0.02  0.14 -0.19
   27 H    1     1.37   0.77  0.54  0.01  0.03  0.02
   28 N    7     7.67   2.01  0.73  0.98 -0.05  2.43  1.43 -0.03  0.06  0.11
   29 H    1     1.03   0.76  0.23 -0.01  0.05 -0.01
   30 C    6     4.99   2.01  0.66  0.04 -0.10  2.01  0.45  0.01  0.11 -0.20
   31 H    1     1.31   0.76  0.52  0.02  0.03 -0.02
   32 C    6     4.50   2.01  0.68  0.02  0.12  1.89 -0.15 -0.09  0.24 -0.22
   33 O    8     8.82   2.01  0.82  1.03  0.16  2.79  1.84  0.15  0.01 -0.00
   34 N    7     7.27   2.01  0.72  0.85 -0.15  2.47  1.25  0.09  0.04 -0.01
   35 H    1     0.91   0.74  0.19 -0.03  0.06 -0.05
   36 H    1     1.02   0.76  0.24  0.00  0.05 -0.03

       Multipole analysis of the density wrt the origin
       ------------------------------------------------

     L   x y z        total         open         nuclear
     -   - - -        -----         ----         -------
     0   0 0 0     -0.000000      0.000000    142.000000

     1   1 0 0     -0.222742      0.000000      0.000000
     1   0 1 0     -1.031193      0.000000      0.000000
     1   0 0 1     -1.070847      0.000000     -0.000000

     2   2 0 0    -90.044584      0.000000   1214.661562
     2   1 1 0     22.011528      0.000000     22.891488
     2   1 0 1      4.513134      0.000000     11.620938
     2   0 2 0    -78.984415      0.000000   4791.227872
     2   0 1 1      2.364505      0.000000    -10.699718
     2   0 0 2    -78.686145      0.000000    334.817170


 Task  times  cpu:     5311.8s     wall:     5651.3s


                                NWChem Input Module
                                -------------------


 Summary of allocated global arrays
-----------------------------------
  No active global arrays


MA_summarize_allocated_blocks: starting scan ...
MA_summarize_allocated_blocks: scan completed: 0 heap blocks, 0 stack blocks
MA usage statistics:

	allocation statistics:
					      heap	     stack
					      ----	     -----
	current number of blocks	         0	         0
	maximum number of blocks	        16	        14
	current total bytes		         0	         0
	maximum total bytes		    132856	  28811304
	maximum total K-bytes		       133	     28812
	maximum total M-bytes		         1	        29


                                     CITATION
                                     --------
                Please cite the following reference when publishing
                           results obtained with NWChem:

          E. Apra, E. J. Bylaska, W. A. de Jong, N. Govind, K. Kowalski,
       T. P. Straatsma, M. Valiev, H. J. J. van Dam, Y. Alexeev, J. Anchell,
       V. Anisimov, F. W. Aquino, R. Atta-Fynn, J. Autschbach, N. P. Bauman,
     J. C. Becca, D. E. Bernholdt, K. Bhaskaran-Nair, S. Bogatko, P. Borowski,
         J. Boschen, J. Brabec, A. Bruner, E. Cauet, Y. Chen, G. N. Chuev,
      C. J. Cramer, J. Daily, M. J. O. Deegan, T. H. Dunning Jr., M. Dupuis,
   K. G. Dyall, G. I. Fann, S. A. Fischer, A. Fonari, H. Fruchtl, L. Gagliardi,
      J. Garza, N. Gawande, S. Ghosh, K. Glaesemann, A. W. Gotz, J. Hammond,
       V. Helms, E. D. Hermes, K. Hirao, S. Hirata, M. Jacquelin, L. Jensen,
   B. G. Johnson, H. Jonsson, R. A. Kendall, M. Klemm, R. Kobayashi, V. Konkov,
      S. Krishnamoorthy, M. Krishnan, Z. Lin, R. D. Lins, R. J. Littlefield,
      A. J. Logsdail, K. Lopata, W. Ma, A. V. Marenich, J. Martin del Campo,
   D. Mejia-Rodriguez, J. E. Moore, J. M. Mullin, T. Nakajima, D. R. Nascimento,
    J. A. Nichols, P. J. Nichols, J. Nieplocha, A. Otero-de-la-Roza, B. Palmer,
    A. Panyala, T. Pirojsirikul, B. Peng, R. Peverati, J. Pittner, L. Pollack,
   R. M. Richard, P. Sadayappan, G. C. Schatz, W. A. Shelton, D. W. Silverstein,
   D. M. A. Smith, T. A. Soares, D. Song, M. Swart, H. L. Taylor, G. S. Thomas,
            V. Tipparaju, D. G. Truhlar, K. Tsemekhman, T. Van Voorhis,
      A. Vazquez-Mayagoitia, P. Verma, O. Villa, A. Vishnu, K. D. Vogiatzis,
        D. Wang, J. H. Weare, M. J. Williamson, T. L. Windus, K. Wolinski,
        A. T. Wong, Q. Wu, C. Yang, Q. Yu, M. Zacharias, Z. Zhang, Y. Zhao,
                                and R. J. Harrison
                        "NWChem: Past, present, and future
                         J. Chem. Phys. 152, 184102 (2020)
                               doi:10.1063/5.0004997

                                      AUTHORS
                                      -------
  E. Apra, E. J. Bylaska, N. Govind, K. Kowalski, M. Valiev, D. Mejia-Rodriguez,
       A. Kunitsa, N. P. Bauman, A. Panyala, W. A. de Jong, T. P. Straatsma,
   H. J. J. van Dam, D. Wang, T. L. Windus, J. Hammond, J. Autschbach, A. Woods,
    K. Bhaskaran-Nair, J. Brabec, K. Lopata, S. A. Fischer, S. Krishnamoorthy,
     M. Jacquelin, W. Ma, M. Klemm, O. Villa, Y. Chen, V. Anisimov, F. Aquino,
     S. Hirata, M. T. Hackler, E. Hermes, L. Jensen, J. E. Moore, J. C. Becca,
      V. Konjkov, T. Risthaus, M. Malagoli, A. Marenich, A. Otero-de-la-Roza,
        J. Mullin, P. Nichols, R. Peverati, J. Pittner, Y. Zhao, P.-D. Fan,
        A. Fonari, M. J. Williamson, R. J. Harrison, J. R. Rehr, M. Dupuis,
     D. Silverstein, D. M. A. Smith, J. Nieplocha, V. Tipparaju, M. Krishnan,
     B. E. Van Kuiken, A. Vazquez-Mayagoitia, M. Swart, Q. Wu, T. Van Voorhis,
     A. A. Auer, M. Nooijen, L. D. Crosby, E. Brown, G. Cisneros, G. I. Fann,
   H. Fruchtl, J. Garza, K. Hirao, R. A. Kendall, J. A. Nichols, K. Tsemekhman,
    K. Wolinski, J. Anchell, D. E. Bernholdt, P. Borowski, T. Clark, D. Clerc,
   H. Dachsel, M. J. O. Deegan, K. Dyall, D. Elwood, E. Glendening, M. Gutowski,
   A. C. Hess, J. Jaffe, B. G. Johnson, J. Ju, R. Kobayashi, R. Kutteh, Z. Lin,
   R. Littlefield, X. Long, B. Meng, T. Nakajima, S. Niu, L. Pollack, M. Rosing,
   K. Glaesemann, G. Sandrone, M. Stave, H. Taylor, G. Thomas, J. H. van Lenthe,
                               A. T. Wong, Z. Zhang.

 Total times  cpu:     5311.8s     wall:     5651.8s
