export TMOUT=5400
export TMPDIR=/tmp
export PTMPDIR=/tmp/ptmp
 argument  1 = ALA_GLN_1.nw
                                         
                                         


             Northwest Computational Chemistry Package (NWChem) 7.2.0
             --------------------------------------------------------


                    Environmental Molecular Sciences Laboratory
                       Pacific Northwest National Laboratory
                                Richland, WA 99352

                              Copyright (c) 1994-2022
                       Pacific Northwest National Laboratory
                            Battelle Memorial Institute

             NWChem is an open-source computational chemistry package
                        distributed under the terms of the
                      Educational Community License (ECL) 2.0
             A copy of the license is included with this distribution
                              in the LICENSE.TXT file

                                  ACKNOWLEDGMENT
                                  --------------

            This software and its documentation were developed at the
            EMSL at Pacific Northwest National Laboratory, a multiprogram
            national laboratory, operated for the U.S. Department of Energy
            by Battelle under Contract Number DE-AC05-76RL01830. Support
            for this work was provided by the Department of Energy Office
            of Biological and Environmental Research, Office of Basic
            Energy Sciences, and the Office of Advanced Scientific Computing.


           Job information
           ---------------

    hostname        = nova18-18
    program         = /opt/rit/el9/20230413/app/linux-rhel9-x86_64_v3/gcc-11.2.1/nwchem-7.2.0-oxtctbuhfuzyfaoziquq6bki22grib3g/bin/nwchem
    date            = Thu Jun 26 11:37:59 2025

    compiled        = Wed_May_17_23:46:39_2023
    source          = /tmp/root/spack-stage/spack-stage-nwchem-7.2.0-oxtctbuhfuzyfaoziquq6bki22grib3g/spack-src
    nwchem branch   = 7.2.0
    nwchem revision = d0d141fd
    ga revision     = 5.8.0
    use scalapack   = T
    input           = ALA_GLN_1.nw
    prefix          = ALA_GLN_1.
    data base       = ./ALA_GLN_1.db
    status          = startup
    nproc           =        8
    time left       =     -1s



           Memory information
           ------------------

    heap     =   26214394 doubles =    200.0 Mbytes
    stack    =   26214399 doubles =    200.0 Mbytes
    global   =   52428800 doubles =    400.0 Mbytes (distinct from heap & stack)
    total    =  104857593 doubles =    800.0 Mbytes
    verify   = yes
    hardfail = no 


           Directory information
           ---------------------

  0 permanent = .
  0 scratch   = .




                                NWChem Input Module
                                -------------------



 Scaling coordinates for geometry "geometry" by  1.889725989
 (inverse scale =  0.529177249)

 C1  symmetry detected

          ------
          auto-z
          ------
  no constraints, skipping    0.0000000000000000     
  no constraints, skipping    0.0000000000000000     


                             Geometry "geometry" -> ""
                             -------------------------

 Output coordinates in angstroms (scale by  1.889725989 to convert to a.u.)

  No.       Tag          Charge          X              Y              Z
 ---- ---------------- ---------- -------------- -------------- --------------
    1 H                    1.0000    -0.91342544    -5.24640633     0.59367215
    2 C                    6.0000    -0.43877081    -4.49621935     1.22399071
    3 H                    1.0000     0.48821247    -4.89701846     1.63271319
    4 H                    1.0000    -1.10574341    -4.21743055     2.03802655
    5 C                    6.0000    -0.12349074    -3.27336242     0.39558658
    6 O                    8.0000     1.03514758    -2.89041742     0.28355372
    7 N                    7.0000    -1.15781106    -2.66731238    -0.18456757
    8 H                    1.0000    -2.08013912    -3.02985424    -0.00991546
    9 C                    6.0000    -1.05340501    -1.41486375    -0.93258214
   10 H                    1.0000    -0.11245860    -1.42058962    -1.48839332
   11 C                    6.0000    -2.20099745    -1.34751670    -1.94821592
   12 H                    1.0000    -3.16001963    -1.33359296    -1.42766182
   13 H                    1.0000    -2.10827394    -0.44079919    -2.54763873
   14 H                    1.0000    -2.16029649    -2.21305721    -2.61095649
   15 C                    6.0000    -1.04659878    -0.18384963    -0.00460751
   16 O                    8.0000    -1.75219302    -0.14057772     1.00256344
   17 N                    7.0000    -0.27679314     0.84070835    -0.37422516
   18 H                    1.0000     0.30129901     0.69960412    -1.19681805
   19 C                    6.0000     0.01130141     2.04609303     0.41634127
   20 H                    1.0000     0.08831550     1.75011407     1.46275576
   21 C                    6.0000     1.38630833     2.62168800    -0.00736550
   22 H                    1.0000     1.38152643     2.81154225    -1.08156590
   23 H                    1.0000     1.53642068     3.57630888     0.49742580
   24 C                    6.0000     2.59916813     1.73390001     0.34892175
   25 H                    1.0000     3.51202251     2.24007228     0.03610469
   26 H                    1.0000     2.63785711     1.62383337     1.43362194
   27 C                    6.0000     2.57930022     0.34901508    -0.29667873
   28 O                    8.0000     2.23137602     0.17745909    -1.45478377
   29 N                    7.0000     2.85499399    -0.69317886     0.45278358
   30 H                    1.0000     2.57885701    -1.59708605     0.08140486
   31 H                    1.0000     3.09099340    -0.58769907     1.41984733
   32 C                    6.0000    -1.12721465     3.09242775     0.36036043
   33 O                    8.0000    -0.90276883     4.28343508     0.18512454
   34 N                    7.0000    -2.37848014     2.66907280     0.47857736
   35 H                    1.0000    -2.55312149     1.68925997     0.65843904
   36 H                    1.0000    -3.12149148     3.34470509     0.43479192

      Atomic Mass 
      ----------- 

      H                  1.007825
      C                 12.000000
      O                 15.994910
      N                 14.003070


 Effective nuclear repulsion energy (a.u.)    1450.8172071472

            Nuclear Dipole moment (a.u.) 
            ----------------------------
        X                 Y               Z
 ---------------- ---------------- ----------------
    -0.0000000000     0.0000000000     0.0000000000



                                Z-matrix (autoz)
                                -------- 

 Units are Angstrom for bonds and degrees for angles

      Type          Name      I     J     K     L     M      Value
      ----------- --------  ----- ----- ----- ----- ----- ----------
    1 Stretch                  1     2                       1.08875
    2 Stretch                  2     3                       1.08949
    3 Stretch                  2     4                       1.08868
    4 Stretch                  2     5                       1.51031
    5 Stretch                  5     6                       1.22541
    6 Stretch                  5     7                       1.33180
    7 Stretch                  7     8                       1.00629
    8 Stretch                  7     9                       1.46255
    9 Stretch                  9    10                       1.09286
   10 Stretch                  9    11                       1.53395
   11 Stretch                  9    15                       1.54162
   12 Stretch                 11    12                       1.09128
   13 Stretch                 11    13                       1.09089
   14 Stretch                 11    14                       1.09089
   15 Stretch                 15    16                       1.23050
   16 Stretch                 15    17                       1.33377
   17 Stretch                 17    18                       1.01526
   18 Stretch                 17    19                       1.47002
   19 Stretch                 19    20                       1.09019
   20 Stretch                 19    21                       1.54967
   21 Stretch                 19    32                       1.54731
   22 Stretch                 21    22                       1.09086
   23 Stretch                 21    23                       1.09025
   24 Stretch                 21    24                       1.54471
   25 Stretch                 24    25                       1.08966
   26 Stretch                 24    26                       1.09096
   27 Stretch                 24    27                       1.52810
   28 Stretch                 27    28                       1.22135
   29 Stretch                 27    29                       1.31296
   30 Stretch                 29    30                       1.01549
   31 Stretch                 29    31                       1.00102
   32 Stretch                 32    33                       1.22457
   33 Stretch                 32    34                       1.32622
   34 Stretch                 34    35                       1.01138
   35 Stretch                 34    36                       1.00522
   36 Bend                     1     2     3               109.55080
   37 Bend                     1     2     4               110.01368
   38 Bend                     1     2     5               109.35097
   39 Bend                     2     5     6               120.03624
   40 Bend                     2     5     7               116.44010
   41 Bend                     3     2     4               109.56992
   42 Bend                     3     2     5               109.02709
   43 Bend                     4     2     5               109.30988
   44 Bend                     5     7     8               118.18224
   45 Bend                     5     7     9               123.85148
   46 Bend                     6     5     7               123.52346
   47 Bend                     7     9    10               108.48703
   48 Bend                     7     9    11               108.83355
   49 Bend                     7     9    15               112.10232
   50 Bend                     8     7     9               117.56244
   51 Bend                     9    11    12               110.01016
   52 Bend                     9    11    13               109.67683
   53 Bend                     9    11    14               109.84608
   54 Bend                     9    15    16               121.21483
   55 Bend                     9    15    17               116.68809
   56 Bend                    10     9    11               107.91642
   57 Bend                    10     9    15               107.84992
   58 Bend                    11     9    15               111.51817
   59 Bend                    12    11    13               109.03831
   60 Bend                    12    11    14               109.43316
   61 Bend                    13    11    14               108.81298
   62 Bend                    15    17    18               116.51352
   63 Bend                    15    17    19               126.43862
   64 Bend                    16    15    17               122.05765
   65 Bend                    17    19    20               107.90412
   66 Bend                    17    19    21               109.35468
   67 Bend                    17    19    32               113.00639
   68 Bend                    18    17    19               115.98315
   69 Bend                    19    21    22               109.26855
   70 Bend                    19    21    23               108.71114
   71 Bend                    19    21    24               114.84325
   72 Bend                    19    32    33               121.87094
   73 Bend                    19    32    34               118.36757
   74 Bend                    20    19    21               107.49353
   75 Bend                    20    19    32               105.68192
   76 Bend                    21    19    32               113.06697
   77 Bend                    21    24    25               108.94010
   78 Bend                    21    24    26               108.37022
   79 Bend                    21    24    27               114.40647
   80 Bend                    22    21    23               107.70688
   81 Bend                    22    21    24               109.30490
   82 Bend                    23    21    24               106.75804
   83 Bend                    24    27    28               122.11441
   84 Bend                    24    27    29               118.39101
   85 Bend                    25    24    26               107.61304
   86 Bend                    25    24    27               108.09488
   87 Bend                    26    24    27               109.21347
   88 Bend                    27    29    30               116.14842
   89 Bend                    27    29    31               121.15261
   90 Bend                    28    27    29               119.31297
   91 Bend                    30    29    31               120.74460
   92 Bend                    32    34    35               119.21086
   93 Bend                    32    34    36               118.61621
   94 Bend                    33    32    34               119.74556
   95 Bend                    35    34    36               122.09067
   96 Torsion                  1     2     5     6        -120.02771
   97 Torsion                  1     2     5     7          59.81532
   98 Torsion                  2     5     7     8           2.46140
   99 Torsion                  2     5     7     9         174.97686
  100 Torsion                  3     2     5     6          -0.27292
  101 Torsion                  3     2     5     7         179.57011
  102 Torsion                  4     2     5     6         119.48058
  103 Torsion                  4     2     5     7         -60.67639
  104 Torsion                  5     7     9    10          37.34684
  105 Torsion                  5     7     9    11         154.52478
  106 Torsion                  5     7     9    15         -81.64055
  107 Torsion                  6     5     7     8        -177.70161
  108 Torsion                  6     5     7     9          -5.18614
  109 Torsion                  7     9    11    12          62.81954
  110 Torsion                  7     9    11    13        -177.25240
  111 Torsion                  7     9    11    14         -57.70320
  112 Torsion                  7     9    15    16         -37.99621
  113 Torsion                  7     9    15    17         144.24217
  114 Torsion                  8     7     9    10        -150.09475
  115 Torsion                  8     7     9    11         -32.91681
  116 Torsion                  8     7     9    15          90.91785
  117 Torsion                  9    15    17    18          -4.81287
  118 Torsion                  9    15    17    19        -172.47437
  119 Torsion                 10     9    11    12        -179.63992
  120 Torsion                 10     9    11    13         -59.71186
  121 Torsion                 10     9    11    14          59.83734
  122 Torsion                 10     9    15    16        -157.35810
  123 Torsion                 10     9    15    17          24.88028
  124 Torsion                 11     9    15    16          84.32373
  125 Torsion                 11     9    15    17         -93.43789
  126 Torsion                 12    11     9    15         -61.36160
  127 Torsion                 13    11     9    15          58.56646
  128 Torsion                 14    11     9    15         178.11566
  129 Torsion                 15    17    19    20          36.37485
  130 Torsion                 15    17    19    21         153.00967
  131 Torsion                 15    17    19    32         -80.09816
  132 Torsion                 16    15    17    18         177.44589
  133 Torsion                 16    15    17    19           9.78439
  134 Torsion                 17    19    21    22          56.07287
  135 Torsion                 17    19    21    23         173.36818
  136 Torsion                 17    19    21    24         -67.14165
  137 Torsion                 17    19    32    33        -134.72734
  138 Torsion                 17    19    32    34          43.81648
  139 Torsion                 18    17    19    20        -131.34372
  140 Torsion                 18    17    19    21         -14.70890
  141 Torsion                 18    17    19    32         112.18328
  142 Torsion                 19    21    24    25        -178.36130
  143 Torsion                 19    21    24    26         -61.55084
  144 Torsion                 19    21    24    27          60.55404
  145 Torsion                 19    32    34    35           3.74834
  146 Torsion                 19    32    34    36        -179.47978
  147 Torsion                 20    19    21    22         172.96748
  148 Torsion                 20    19    21    23         -69.73721
  149 Torsion                 20    19    21    24          49.75296
  150 Torsion                 20    19    32    33         107.49058
  151 Torsion                 20    19    32    34         -73.96560
  152 Torsion                 21    19    32    33          -9.82616
  153 Torsion                 21    19    32    34         168.71765
  154 Torsion                 21    24    27    28          41.08972
  155 Torsion                 21    24    27    29        -133.97606
  156 Torsion                 22    21    19    32         -70.78497
  157 Torsion                 22    21    24    25          58.44362
  158 Torsion                 22    21    24    26         175.25408
  159 Torsion                 22    21    24    27         -62.64104
  160 Torsion                 23    21    19    32          46.51034
  161 Torsion                 23    21    24    25         -57.79052
  162 Torsion                 23    21    24    26          59.01994
  163 Torsion                 23    21    24    27        -178.87518
  164 Torsion                 24    21    19    32         166.00051
  165 Torsion                 24    27    29    30         163.00222
  166 Torsion                 24    27    29    31          -1.20088
  167 Torsion                 25    24    27    28         -80.46024
  168 Torsion                 25    24    27    29         104.47398
  169 Torsion                 26    24    27    28         162.73315
  170 Torsion                 26    24    27    29         -12.33263
  171 Torsion                 28    27    29    30         -12.20519
  172 Torsion                 28    27    29    31        -176.40829
  173 Torsion                 33    32    34    35        -177.67597
  174 Torsion                 33    32    34    36          -0.90409


            XYZ format geometry
            -------------------
    36
 geometry
 H                    -0.91342544    -5.24640633     0.59367215
 C                    -0.43877081    -4.49621935     1.22399071
 H                     0.48821247    -4.89701846     1.63271319
 H                    -1.10574341    -4.21743055     2.03802655
 C                    -0.12349074    -3.27336242     0.39558658
 O                     1.03514758    -2.89041742     0.28355372
 N                    -1.15781106    -2.66731238    -0.18456757
 H                    -2.08013912    -3.02985424    -0.00991546
 C                    -1.05340501    -1.41486375    -0.93258214
 H                    -0.11245860    -1.42058962    -1.48839332
 C                    -2.20099745    -1.34751670    -1.94821592
 H                    -3.16001963    -1.33359296    -1.42766182
 H                    -2.10827394    -0.44079919    -2.54763873
 H                    -2.16029649    -2.21305721    -2.61095649
 C                    -1.04659878    -0.18384963    -0.00460751
 O                    -1.75219302    -0.14057772     1.00256344
 N                    -0.27679314     0.84070835    -0.37422516
 H                     0.30129901     0.69960412    -1.19681805
 C                     0.01130141     2.04609303     0.41634127
 H                     0.08831550     1.75011407     1.46275576
 C                     1.38630833     2.62168800    -0.00736550
 H                     1.38152643     2.81154225    -1.08156590
 H                     1.53642068     3.57630888     0.49742580
 C                     2.59916813     1.73390001     0.34892175
 H                     3.51202251     2.24007228     0.03610469
 H                     2.63785711     1.62383337     1.43362194
 C                     2.57930022     0.34901508    -0.29667873
 O                     2.23137602     0.17745909    -1.45478377
 N                     2.85499399    -0.69317886     0.45278358
 H                     2.57885701    -1.59708605     0.08140486
 H                     3.09099340    -0.58769907     1.41984733
 C                    -1.12721465     3.09242775     0.36036043
 O                    -0.90276883     4.28343508     0.18512454
 N                    -2.37848014     2.66907280     0.47857736
 H                    -2.55312149     1.68925997     0.65843904
 H                    -3.12149148     3.34470509     0.43479192

 ==============================================================================
                                internuclear distances
 ------------------------------------------------------------------------------
       center one      |      center two      | atomic units |  angstroms
 ------------------------------------------------------------------------------
    2 C                |   1 H                |     2.05744  |     1.08875
    3 H                |   2 C                |     2.05884  |     1.08949
    4 H                |   2 C                |     2.05731  |     1.08868
    5 C                |   2 C                |     2.85407  |     1.51031
    6 O                |   5 C                |     2.31570  |     1.22541
    7 N                |   5 C                |     2.51674  |     1.33180
    8 H                |   7 N                |     1.90162  |     1.00629
    9 C                |   7 N                |     2.76382  |     1.46255
   10 H                |   9 C                |     2.06520  |     1.09286
   11 C                |   9 C                |     2.89875  |     1.53395
   12 H                |  11 C                |     2.06222  |     1.09128
   13 H                |  11 C                |     2.06148  |     1.09089
   14 H                |  11 C                |     2.06148  |     1.09089
   15 C                |   9 C                |     2.91323  |     1.54162
   16 O                |  15 C                |     2.32531  |     1.23050
   17 N                |  15 C                |     2.52046  |     1.33377
   18 H                |  17 N                |     1.91857  |     1.01526
   19 C                |  17 N                |     2.77793  |     1.47002
   20 H                |  19 C                |     2.06016  |     1.09019
   21 C                |  19 C                |     2.92845  |     1.54967
   22 H                |  21 C                |     2.06143  |     1.09086
   23 H                |  21 C                |     2.06028  |     1.09025
   24 C                |  21 C                |     2.91908  |     1.54471
   25 H                |  24 C                |     2.05917  |     1.08966
   26 H                |  24 C                |     2.06161  |     1.09096
   27 C                |  24 C                |     2.88770  |     1.52810
   28 O                |  27 C                |     2.30801  |     1.22135
   29 N                |  27 C                |     2.48114  |     1.31296
   30 H                |  29 N                |     1.91900  |     1.01549
   31 H                |  29 N                |     1.89165  |     1.00102
   32 C                |  19 C                |     2.92399  |     1.54731
   33 O                |  32 C                |     2.31411  |     1.22457
   34 N                |  32 C                |     2.50620  |     1.32622
   35 H                |  34 N                |     1.91122  |     1.01138
   36 H                |  34 N                |     1.89959  |     1.00522
 ------------------------------------------------------------------------------
                         number of included internuclear distances:         35
 ==============================================================================



 ==============================================================================
                                 internuclear angles
 ------------------------------------------------------------------------------
        center 1       |       center 2       |       center 3       |  degrees
 ------------------------------------------------------------------------------
    1 H                |   2 C                |   3 H                |   109.55
    1 H                |   2 C                |   4 H                |   110.01
    1 H                |   2 C                |   5 C                |   109.35
    3 H                |   2 C                |   4 H                |   109.57
    3 H                |   2 C                |   5 C                |   109.03
    4 H                |   2 C                |   5 C                |   109.31
    2 C                |   5 C                |   6 O                |   120.04
    2 C                |   5 C                |   7 N                |   116.44
    6 O                |   5 C                |   7 N                |   123.52
    5 C                |   7 N                |   8 H                |   118.18
    5 C                |   7 N                |   9 C                |   123.85
    8 H                |   7 N                |   9 C                |   117.56
    7 N                |   9 C                |  10 H                |   108.49
    7 N                |   9 C                |  11 C                |   108.83
    7 N                |   9 C                |  15 C                |   112.10
   10 H                |   9 C                |  11 C                |   107.92
   10 H                |   9 C                |  15 C                |   107.85
   11 C                |   9 C                |  15 C                |   111.52
    9 C                |  11 C                |  12 H                |   110.01
    9 C                |  11 C                |  13 H                |   109.68
    9 C                |  11 C                |  14 H                |   109.85
   12 H                |  11 C                |  13 H                |   109.04
   12 H                |  11 C                |  14 H                |   109.43
   13 H                |  11 C                |  14 H                |   108.81
    9 C                |  15 C                |  16 O                |   121.21
    9 C                |  15 C                |  17 N                |   116.69
   16 O                |  15 C                |  17 N                |   122.06
   15 C                |  17 N                |  18 H                |   116.51
   15 C                |  17 N                |  19 C                |   126.44
   18 H                |  17 N                |  19 C                |   115.98
   17 N                |  19 C                |  20 H                |   107.90
   17 N                |  19 C                |  21 C                |   109.35
   17 N                |  19 C                |  32 C                |   113.01
   20 H                |  19 C                |  21 C                |   107.49
   20 H                |  19 C                |  32 C                |   105.68
   21 C                |  19 C                |  32 C                |   113.07
   19 C                |  21 C                |  22 H                |   109.27
   19 C                |  21 C                |  23 H                |   108.71
   19 C                |  21 C                |  24 C                |   114.84
   22 H                |  21 C                |  23 H                |   107.71
   22 H                |  21 C                |  24 C                |   109.30
   23 H                |  21 C                |  24 C                |   106.76
   21 C                |  24 C                |  25 H                |   108.94
   21 C                |  24 C                |  26 H                |   108.37
   21 C                |  24 C                |  27 C                |   114.41
   25 H                |  24 C                |  26 H                |   107.61
   25 H                |  24 C                |  27 C                |   108.09
   26 H                |  24 C                |  27 C                |   109.21
   24 C                |  27 C                |  28 O                |   122.11
   24 C                |  27 C                |  29 N                |   118.39
   28 O                |  27 C                |  29 N                |   119.31
   27 C                |  29 N                |  30 H                |   116.15
   27 C                |  29 N                |  31 H                |   121.15
   30 H                |  29 N                |  31 H                |   120.74
   19 C                |  32 C                |  33 O                |   121.87
   19 C                |  32 C                |  34 N                |   118.37
   33 O                |  32 C                |  34 N                |   119.75
   32 C                |  34 N                |  35 H                |   119.21
   32 C                |  34 N                |  36 H                |   118.62
   35 H                |  34 N                |  36 H                |   122.09
 ------------------------------------------------------------------------------
                            number of included internuclear angles:         60
 ==============================================================================



  library name resolved from: environment
  library file name is: </opt/rit/el9/20230413/app/linux-rhel9-x86_64_v3/gcc-11.2.1/nwchem-7.2.0-oxtctbuhfuzyfaoziquq6bki22grib3g/share/nwchem/libraries/>
  


 Summary of "ao basis" -> "" (cartesian)
 ------------------------------------------------------------------------------
       Tag                 Description            Shells   Functions and Types
 ---------------- ------------------------------  ------  ---------------------
 *                        aug-cc-pvdz                 on all atoms 


                      Basis "ao basis" -> "ao basis" (cartesian)
                      -----
  H (Hydrogen)
  ------------
            Exponent  Coefficients 
       -------------- ---------------------------------------------------------
  1 S  1.30100000E+01  0.019685
  1 S  1.96200000E+00  0.137977
  1 S  4.44600000E-01  0.478148

  2 S  1.22000000E-01  1.000000

  3 S  2.97400000E-02  1.000000

  4 P  7.27000000E-01  1.000000

  5 P  1.41000000E-01  1.000000

  C (Carbon)
  ----------
            Exponent  Coefficients 
       -------------- ---------------------------------------------------------
  1 S  6.66500000E+03  0.000692
  1 S  1.00000000E+03  0.005329
  1 S  2.28000000E+02  0.027077
  1 S  6.47100000E+01  0.101718
  1 S  2.10600000E+01  0.274740
  1 S  7.49500000E+00  0.448564
  1 S  2.79700000E+00  0.285074
  1 S  5.21500000E-01  0.015204

  2 S  6.66500000E+03 -0.000146
  2 S  1.00000000E+03 -0.001154
  2 S  2.28000000E+02 -0.005725
  2 S  6.47100000E+01 -0.023312
  2 S  2.10600000E+01 -0.063955
  2 S  7.49500000E+00 -0.149981
  2 S  2.79700000E+00 -0.127262
  2 S  5.21500000E-01  0.544529

  3 S  1.59600000E-01  1.000000

  4 S  4.69000000E-02  1.000000

  5 P  9.43900000E+00  0.038109
  5 P  2.00200000E+00  0.209480
  5 P  5.45600000E-01  0.508557

  6 P  1.51700000E-01  1.000000

  7 P  4.04100000E-02  1.000000

  8 D  5.50000000E-01  1.000000

  9 D  1.51000000E-01  1.000000

  O (Oxygen)
  ----------
            Exponent  Coefficients 
       -------------- ---------------------------------------------------------
  1 S  1.17200000E+04  0.000710
  1 S  1.75900000E+03  0.005470
  1 S  4.00800000E+02  0.027837
  1 S  1.13700000E+02  0.104800
  1 S  3.70300000E+01  0.283062
  1 S  1.32700000E+01  0.448719
  1 S  5.02500000E+00  0.270952
  1 S  1.01300000E+00  0.015458

  2 S  1.17200000E+04 -0.000160
  2 S  1.75900000E+03 -0.001263
  2 S  4.00800000E+02 -0.006267
  2 S  1.13700000E+02 -0.025716
  2 S  3.70300000E+01 -0.070924
  2 S  1.32700000E+01 -0.165411
  2 S  5.02500000E+00 -0.116955
  2 S  1.01300000E+00  0.557368

  3 S  3.02300000E-01  1.000000

  4 S  7.89600000E-02  1.000000

  5 P  1.77000000E+01  0.043018
  5 P  3.85400000E+00  0.228913
  5 P  1.04600000E+00  0.508728

  6 P  2.75300000E-01  1.000000

  7 P  6.85600000E-02  1.000000

  8 D  1.18500000E+00  1.000000

  9 D  3.32000000E-01  1.000000

  N (Nitrogen)
  ------------
            Exponent  Coefficients 
       -------------- ---------------------------------------------------------
  1 S  9.04600000E+03  0.000700
  1 S  1.35700000E+03  0.005389
  1 S  3.09300000E+02  0.027406
  1 S  8.77300000E+01  0.103207
  1 S  2.85600000E+01  0.278723
  1 S  1.02100000E+01  0.448540
  1 S  3.83800000E+00  0.278238
  1 S  7.46600000E-01  0.015440

  2 S  9.04600000E+03 -0.000153
  2 S  1.35700000E+03 -0.001208
  2 S  3.09300000E+02 -0.005992
  2 S  8.77300000E+01 -0.024544
  2 S  2.85600000E+01 -0.067459
  2 S  1.02100000E+01 -0.158078
  2 S  3.83800000E+00 -0.121831
  2 S  7.46600000E-01  0.549003

  3 S  2.24800000E-01  1.000000

  4 S  6.12400000E-02  1.000000

  5 P  1.35500000E+01  0.039919
  5 P  2.91700000E+00  0.217169
  5 P  7.97300000E-01  0.510319

  6 P  2.18500000E-01  1.000000

  7 P  5.61100000E-02  1.000000

  8 D  8.17000000E-01  1.000000

  9 D  2.30000000E-01  1.000000



 Summary of "ao basis" -> "ao basis" (cartesian)
 ------------------------------------------------------------------------------
       Tag                 Description            Shells   Functions and Types
 ---------------- ------------------------------  ------  ---------------------
 H                        aug-cc-pvdz                5        9   3s2p
 C                        aug-cc-pvdz                9       25   4s3p2d
 O                        aug-cc-pvdz                9       25   4s3p2d
 N                        aug-cc-pvdz                9       25   4s3p2d


                                 NWChem SCF Module
                                 -----------------



  ao basis        = "ao basis"
  functions       =   612
  atoms           =    36
  closed shells   =    69
  open shells     =     0
  charge          =   0.00
  wavefunction    = RHF 
  input vectors   = atomic
  output vectors  = ./ALA_GLN_1.movecs
  use symmetry    = F
  symmetry adapt  = F


 Summary of "ao basis" -> "ao basis" (cartesian)
 ------------------------------------------------------------------------------
       Tag                 Description            Shells   Functions and Types
 ---------------- ------------------------------  ------  ---------------------
 H                        aug-cc-pvdz                5        9   3s2p
 C                        aug-cc-pvdz                9       25   4s3p2d
 O                        aug-cc-pvdz                9       25   4s3p2d
 N                        aug-cc-pvdz                9       25   4s3p2d



 Forming initial guess at       2.0s


 !! The overlap matrix has   6 vectors deemed linearly dependent with
    eigenvalues:
 2.34D-06 4.40D-06 5.67D-06 8.65D-06 8.71D-06 9.95D-06


      Superposition of Atomic Density Guess
      -------------------------------------

 Sum of atomic energies:        -901.93634758

      Non-variational initial energy
      ------------------------------

 Total energy =    -913.549085
 1-e energy   =   -4110.190657
 2-e energy   =    1745.824364
 HOMO         =      -0.308526
 LUMO         =       0.010856


 Starting SCF solution at     320.7s



 ----------------------------------------------
         Quadratically convergent ROHF

 Convergence threshold     :          1.000E-04
 Maximum no. of iterations :           30
 Final Fock-matrix accuracy:          1.000E-10
 ----------------------------------------------


              iter       energy          gnorm     gmax       time
             ----- ------------------- --------- --------- --------
                 1     -906.2030072522  2.65D+00  1.44D-01    610.2
                 2     -906.5705546665  8.66D-01  4.25D-02   1264.2
                 3     -906.6361872405  6.72D-02  4.75D-03   2224.9
                 4     -906.6368789417  4.14D-03  3.46D-04   3475.1
                 5     -906.6368821906  9.78D-06  7.19D-07   5700.8


       Final RHF  results 
       ------------------ 

         Total SCF energy =   -906.636882190573
      One-electron energy =  -4123.397590651622
      Two-electron energy =   1765.943501313871
 Nuclear repulsion energy =   1450.817207147177

        Time for solution =   5388.9s


             Final eigenvalues
             -----------------

              1      
    1  -20.5402
    2  -20.5392
    3  -20.5196
    4  -20.5170
    5  -15.6113
    6  -15.6024
    7  -15.5836
    8  -15.5783
    9  -11.3699
   10  -11.3680
   11  -11.3537
   12  -11.3508
   13  -11.3058
   14  -11.3020
   15  -11.2557
   16  -11.2546
   17  -11.2524
   18  -11.2498
   19   -1.4053
   20   -1.3970
   21   -1.3909
   22   -1.3784
   23   -1.2597
   24   -1.2521
   25   -1.2187
   26   -1.2069
   27   -1.0895
   28   -1.0657
   29   -1.0063
   30   -0.9906
   31   -0.9038
   32   -0.8756
   33   -0.8285
   34   -0.8089
   35   -0.7919
   36   -0.7787
   37   -0.7383
   38   -0.7338
   39   -0.7200
   40   -0.6938
   41   -0.6912
   42   -0.6767
   43   -0.6697
   44   -0.6565
   45   -0.6353
   46   -0.6247
   47   -0.6124
   48   -0.6005
   49   -0.5947
   50   -0.5890
   51   -0.5878
   52   -0.5806
   53   -0.5671
   54   -0.5532
   55   -0.5510
   56   -0.5394
   57   -0.5327
   58   -0.5255
   59   -0.5213
   60   -0.5096
   61   -0.4930
   62   -0.4487
   63   -0.4392
   64   -0.4372
   65   -0.4216
   66   -0.4136
   67   -0.4064
   68   -0.3997
   69   -0.3882
   70    0.0255
   71    0.0339
   72    0.0382
   73    0.0428
   74    0.0484
   75    0.0524
   76    0.0557
   77    0.0582
   78    0.0644
   79    0.0690

                       ROHF Final Molecular Orbital Analysis
                       -------------------------------------

 Vector   19  Occ=2.000000D+00  E=-1.405316D+00
              MO Center= -4.4D-01, -1.4D+00,  3.5D-01, r^2= 4.3D+00
   Bfn.  Coefficient  Atom+Function         Bfn.  Coefficient  Atom+Function  
  ----- ------------  ---------------      ----- ------------  ---------------
   250      0.260628  16 O  s                80      0.240497   6 O  s         
    79      0.237935   6 O  s               249      0.238002  16 O  s         
    54      0.171586   5 C  s               224      0.171862  15 C  s         

 Vector   20  Occ=2.000000D+00  E=-1.397010D+00
              MO Center= -3.6D-01, -1.4D+00,  4.0D-01, r^2= 4.7D+00
   Bfn.  Coefficient  Atom+Function         Bfn.  Coefficient  Atom+Function  
  ----- ------------  ---------------      ----- ------------  ---------------
    80      0.261901   6 O  s               250     -0.260614  16 O  s         
    79      0.258233   6 O  s               249     -0.238941  16 O  s         
    54      0.175384   5 C  s               224     -0.163583  15 C  s         

 Vector   21  Occ=2.000000D+00  E=-1.390850D+00
              MO Center=  2.3D+00,  1.4D-01, -8.7D-01, r^2= 1.4D+00
   Bfn.  Coefficient  Atom+Function         Bfn.  Coefficient  Atom+Function  
  ----- ------------  ---------------      ----- ------------  ---------------
   454      0.367779  28 O  s               453      0.346430  28 O  s         
   428      0.244060  27 C  s         

 Vector   22  Occ=2.000000D+00  E=-1.378360D+00
              MO Center= -1.1D+00,  3.6D+00,  2.8D-01, r^2= 1.5D+00
   Bfn.  Coefficient  Atom+Function         Bfn.  Coefficient  Atom+Function  
  ----- ------------  ---------------      ----- ------------  ---------------
   547      0.372050  33 O  s               546      0.348157  33 O  s         
   521      0.241639  32 C  s         

 Vector   23  Occ=2.000000D+00  E=-1.259720D+00
              MO Center= -8.2D-01, -2.5D+00, -1.2D-01, r^2= 2.0D+00
   Bfn.  Coefficient  Atom+Function         Bfn.  Coefficient  Atom+Function  
  ----- ------------  ---------------      ----- ------------  ---------------
   105      0.423218   7 N  s               104      0.339177   7 N  s         
    80     -0.209851   6 O  s                57     -0.187096   5 C  px        
    79     -0.177498   6 O  s               128      0.154988   8 H  s         

 Vector   24  Occ=2.000000D+00  E=-1.252136D+00
              MO Center= -4.8D-01,  7.4D-01, -9.1D-02, r^2= 2.4D+00
   Bfn.  Coefficient  Atom+Function         Bfn.  Coefficient  Atom+Function  
  ----- ------------  ---------------      ----- ------------  ---------------
   275      0.395689  17 N  s               274      0.335953  17 N  s         
   250     -0.212463  16 O  s               249     -0.166115  16 O  s         

 Vector   25  Occ=2.000000D+00  E=-1.218708D+00
              MO Center=  2.7D+00, -3.8D-01,  1.4D-01, r^2= 1.3D+00
   Bfn.  Coefficient  Atom+Function         Bfn.  Coefficient  Atom+Function  
  ----- ------------  ---------------      ----- ------------  ---------------
   478      0.366079  29 N  s               479      0.366603  29 N  s         
   454     -0.236747  28 O  s               433      0.191958  27 C  pz        
   453     -0.189318  28 O  s               511      0.171236  31 H  s         
   386     -0.152073  24 C  s         

 Vector   26  Occ=2.000000D+00  E=-1.206912D+00
              MO Center= -2.0D+00,  2.8D+00,  4.1D-01, r^2= 1.6D+00
   Bfn.  Coefficient  Atom+Function         Bfn.  Coefficient  Atom+Function  
  ----- ------------  ---------------      ----- ------------  ---------------
   572      0.397436  34 N  s               571      0.367920  34 N  s         
   547     -0.209498  33 O  s               546     -0.174649  33 O  s         
   595      0.164142  35 H  s               604      0.157909  36 H  s         
   524     -0.154979  32 C  px              275     -0.153173  17 N  s         

 Vector   27  Occ=2.000000D+00  E=-1.089547D+00
              MO Center=  4.0D-01,  7.5D-01, -1.1D-01, r^2= 7.4D+00
   Bfn.  Coefficient  Atom+Function         Bfn.  Coefficient  Atom+Function  
  ----- ------------  ---------------      ----- ------------  ---------------
   342      0.206066  21 C  s               385      0.170994  24 C  s         
   308      0.165687  19 C  s         

 Vector   28  Occ=2.000000D+00  E=-1.065656D+00
              MO Center= -2.0D-01, -7.6D-01, -3.9D-01, r^2= 9.4D+00
   Bfn.  Coefficient  Atom+Function         Bfn.  Coefficient  Atom+Function  
  ----- ------------  ---------------      ----- ------------  ---------------
   138      0.191574   9 C  s               172      0.183691  11 C  s         
    12     -0.164148   2 C  s               385      0.157418  24 C  s         

 Vector   29  Occ=2.000000D+00  E=-1.006321D+00
              MO Center= -3.8D-01, -3.0D+00,  5.8D-01, r^2= 8.0D+00
   Bfn.  Coefficient  Atom+Function         Bfn.  Coefficient  Atom+Function  
  ----- ------------  ---------------      ----- ------------  ---------------
    11      0.305635   2 C  s         

 Vector   30  Occ=2.000000D+00  E=-9.906479D-01
              MO Center=  3.8D-01,  8.0D-01,  1.3D-02, r^2= 8.7D+00
   Bfn.  Coefficient  Atom+Function         Bfn.  Coefficient  Atom+Function  
  ----- ------------  ---------------      ----- ------------  ---------------
   308      0.220511  19 C  s               385     -0.206925  24 C  s         

 Vector   31  Occ=2.000000D+00  E=-9.038331D-01
              MO Center= -9.2D-01, -7.9D-01, -8.5D-01, r^2= 7.2D+00
   Bfn.  Coefficient  Atom+Function         Bfn.  Coefficient  Atom+Function  
  ----- ------------  ---------------      ----- ------------  ---------------
   146      0.258414   9 C  pz              172     -0.231306  11 C  s         
   386     -0.199497  24 C  s               276      0.183416  17 N  s         
   523      0.182660  32 C  s               138      0.178366   9 C  s         
   344     -0.176402  21 C  s               174     -0.170501  11 C  s         
   139      0.152139   9 C  s         

 Vector   32  Occ=2.000000D+00  E=-8.756096D-01
              MO Center=  5.9D-01,  1.6D+00,  4.7D-02, r^2= 7.3D+00
   Bfn.  Coefficient  Atom+Function         Bfn.  Coefficient  Atom+Function  
  ----- ------------  ---------------      ----- ------------  ---------------
   386      0.329252  24 C  s               309      0.238901  19 C  s         
   342     -0.218101  21 C  s               392     -0.198090  24 C  py        
   343     -0.175064  21 C  s               314     -0.173959  19 C  px        

 Vector   33  Occ=2.000000D+00  E=-8.284782D-01
              MO Center= -7.4D-01, -1.2D+00, -6.2D-02, r^2= 7.3D+00
   Bfn.  Coefficient  Atom+Function         Bfn.  Coefficient  Atom+Function  
  ----- ------------  ---------------      ----- ------------  ---------------
   107      0.222582   7 N  px              309      0.207914  19 C  s         
    54      0.175632   5 C  s               105     -0.150600   7 N  s         

 Vector   34  Occ=2.000000D+00  E=-8.089019D-01
              MO Center= -3.3D-01, -8.0D-01, -6.0D-02, r^2= 7.9D+00
   Bfn.  Coefficient  Atom+Function         Bfn.  Coefficient  Atom+Function  
  ----- ------------  ---------------      ----- ------------  ---------------
   107      0.249320   7 N  px              128     -0.231765   8 H  s         
   105     -0.174513   7 N  s               163      0.174208  10 H  s         
    55      0.172075   5 C  s               309     -0.160992  19 C  s         

 Vector   35  Occ=2.000000D+00  E=-7.919045D-01
              MO Center=  1.1D+00,  4.0D-01,  1.3D-01, r^2= 7.9D+00
   Bfn.  Coefficient  Atom+Function         Bfn.  Coefficient  Atom+Function  
  ----- ------------  ---------------      ----- ------------  ---------------
   483      0.211372  29 N  pz              511      0.198982  31 H  s         
   482     -0.176624  29 N  py              428     -0.167808  27 C  s         
   314     -0.159034  19 C  px        

 Vector   36  Occ=2.000000D+00  E=-7.787014D-01
              MO Center= -1.1D-01,  1.5D+00,  2.4D-01, r^2= 7.5D+00
   Bfn.  Coefficient  Atom+Function         Bfn.  Coefficient  Atom+Function  
  ----- ------------  ---------------      ----- ------------  ---------------
   343      0.280069  21 C  s               574      0.220162  34 N  px        
   279     -0.165860  17 N  pz              527     -0.163816  32 C  px        
   521      0.159402  32 C  s               298      0.154856  18 H  s         
   275      0.152141  17 N  s         

 Vector   37  Occ=2.000000D+00  E=-7.382690D-01
              MO Center=  2.1D-01, -6.3D-01,  8.0D-02, r^2= 8.6D+00
   Bfn.  Coefficient  Atom+Function         Bfn.  Coefficient  Atom+Function  
  ----- ------------  ---------------      ----- ------------  ---------------
   483     -0.189778  29 N  pz               55      0.184985   5 C  s         
   511     -0.175582  31 H  s               145     -0.170663   9 C  py        
   228      0.161865  15 C  py              142     -0.155056   9 C  py        

 Vector   38  Occ=2.000000D+00  E=-7.337633D-01
              MO Center= -1.4D+00,  2.0D+00,  3.8D-01, r^2= 4.9D+00
   Bfn.  Coefficient  Atom+Function         Bfn.  Coefficient  Atom+Function  
  ----- ------------  ---------------      ----- ------------  ---------------
   575      0.339756  34 N  py              595     -0.281571  35 H  s         
   523     -0.220698  32 C  s               596     -0.179570  35 H  s         
   604      0.180117  36 H  s               225      0.171556  15 C  s         
   524     -0.168569  32 C  px              315     -0.162577  19 C  py        

 Vector   39  Occ=2.000000D+00  E=-7.199780D-01
              MO Center=  1.0D+00, -4.5D-01,  1.2D-01, r^2= 7.6D+00
   Bfn.  Coefficient  Atom+Function         Bfn.  Coefficient  Atom+Function  
  ----- ------------  ---------------      ----- ------------  ---------------
   386      0.247657  24 C  s               343     -0.221173  21 C  s         
   502      0.214380  30 H  s               225     -0.208004  15 C  s         
   483     -0.197095  29 N  pz              511     -0.195877  31 H  s         
   482     -0.181899  29 N  py              145      0.160990   9 C  py        
   228     -0.161065  15 C  py              142      0.157535   9 C  py        

 Vector   40  Occ=2.000000D+00  E=-6.937699D-01
              MO Center= -2.1D-02,  6.3D-02,  4.5D-02, r^2= 8.1D+00
   Bfn.  Coefficient  Atom+Function         Bfn.  Coefficient  Atom+Function  
  ----- ------------  ---------------      ----- ------------  ---------------
   309      0.188120  19 C  s               254      0.167327  16 O  pz        
   343     -0.154781  21 C  s         

 Vector   41  Occ=2.000000D+00  E=-6.912087D-01
              MO Center=  4.6D-01, -1.8D+00,  2.6D-01, r^2= 8.7D+00
   Bfn.  Coefficient  Atom+Function         Bfn.  Coefficient  Atom+Function  
  ----- ------------  ---------------      ----- ------------  ---------------
    80      0.216627   6 O  s                82      0.200842   6 O  px        
    12     -0.195840   2 C  s                83      0.180478   6 O  py        
    57     -0.175434   5 C  px               18     -0.168316   2 C  py        

 Vector   42  Occ=2.000000D+00  E=-6.767372D-01
              MO Center=  5.9D-01, -8.3D-01, -2.9D-01, r^2= 9.3D+00
   Bfn.  Coefficient  Atom+Function         Bfn.  Coefficient  Atom+Function  
  ----- ------------  ---------------      ----- ------------  ---------------
   276      0.197551  17 N  s               143     -0.158465   9 C  pz        
   432      0.151674  27 C  py        

 Vector   43  Occ=2.000000D+00  E=-6.697355D-01
              MO Center= -7.2D-01,  2.5D+00,  2.8D-01, r^2= 6.1D+00
   Bfn.  Coefficient  Atom+Function         Bfn.  Coefficient  Atom+Function  
  ----- ------------  ---------------      ----- ------------  ---------------
   574     -0.247931  34 N  px              604      0.244724  36 H  s         
   524      0.237093  32 C  px              550     -0.202609  33 O  py        
   547     -0.171563  33 O  s               605      0.154638  36 H  s         
   315      0.150346  19 C  py        

 Vector   44  Occ=2.000000D+00  E=-6.565042D-01
              MO Center=  3.4D-01, -3.2D-01, -2.3D-01, r^2= 8.6D+00
   Bfn.  Coefficient  Atom+Function         Bfn.  Coefficient  Atom+Function  
  ----- ------------  ---------------      ----- ------------  ---------------
   278      0.178579  17 N  py              458     -0.165823  28 O  pz        
   454      0.162927  28 O  s               482      0.158146  29 N  py        
   315     -0.153478  19 C  py        

 Vector   45  Occ=2.000000D+00  E=-6.353395D-01
              MO Center= -2.6D-01, -1.4D+00,  4.9D-01, r^2= 9.6D+00
   Bfn.  Coefficient  Atom+Function         Bfn.  Coefficient  Atom+Function  
  ----- ------------  ---------------      ----- ------------  ---------------
   254      0.213239  16 O  pz              250      0.180547  16 O  s         
    16      0.167906   2 C  pz               44      0.157413   4 H  s         
   225     -0.155581  15 C  s         

 Vector   46  Occ=2.000000D+00  E=-6.246707D-01
              MO Center= -2.3D-01, -1.4D+00,  1.8D-01, r^2= 1.2D+01
   Bfn.  Coefficient  Atom+Function         Bfn.  Coefficient  Atom+Function  
  ----- ------------  ---------------      ----- ------------  ---------------
     1      0.185357   1 H  s                15     -0.179488   2 C  py        
   523     -0.178891  32 C  s               234      0.173138  15 C  py        
    59     -0.161744   5 C  pz        

 Vector   47  Occ=2.000000D+00  E=-6.123813D-01
              MO Center= -1.4D-02,  6.8D-01, -1.5D-01, r^2= 9.2D+00
   Bfn.  Coefficient  Atom+Function         Bfn.  Coefficient  Atom+Function  
  ----- ------------  ---------------      ----- ------------  ---------------
   276      0.202642  17 N  s               252      0.182282  16 O  px        
   409      0.168290  25 H  s               386     -0.161463  24 C  s         
   388      0.161971  24 C  px              177     -0.155630  11 C  pz        
   214      0.153122  14 H  s         

 Vector   48  Occ=2.000000D+00  E=-6.004792D-01
              MO Center=  7.3D-01,  2.7D-01, -3.8D-01, r^2= 9.2D+00
   Bfn.  Coefficient  Atom+Function         Bfn.  Coefficient  Atom+Function  
  ----- ------------  ---------------      ----- ------------  ---------------
   458      0.280431  28 O  pz              433     -0.219163  27 C  pz        
   454     -0.197252  28 O  s               376      0.183714  23 H  s         
   254     -0.155472  16 O  pz              347      0.153779  21 C  pz        
   523      0.153285  32 C  s         

 Vector   49  Occ=2.000000D+00  E=-5.947307D-01
              MO Center= -1.6D-01, -2.0D+00, -2.1D-01, r^2= 8.5D+00
   Bfn.  Coefficient  Atom+Function         Bfn.  Coefficient  Atom+Function  
  ----- ------------  ---------------      ----- ------------  ---------------
    82      0.304753   6 O  px               57     -0.212814   5 C  px        
   205     -0.173669  13 H  s                58     -0.168979   5 C  py        
    80      0.162460   6 O  s                15      0.159336   2 C  py        
    85      0.159195   6 O  px              128     -0.159910   8 H  s         
   176     -0.156871  11 C  py        

 Vector   50  Occ=2.000000D+00  E=-5.890037D-01
              MO Center= -2.3D-01,  2.1D+00,  1.6D-01, r^2= 1.0D+01
   Bfn.  Coefficient  Atom+Function         Bfn.  Coefficient  Atom+Function  
  ----- ------------  ---------------      ----- ------------  ---------------
   550      0.323428  33 O  py              525     -0.271894  32 C  py        
   276     -0.244987  17 N  s               343      0.203637  21 C  s         
   522     -0.201819  32 C  s               547      0.196662  33 O  s         
   575      0.159547  34 N  py              553      0.156616  33 O  py        

 Vector   51  Occ=2.000000D+00  E=-5.877984D-01
              MO Center= -6.7D-01, -8.2D-01,  4.6D-02, r^2= 1.1D+01
   Bfn.  Coefficient  Atom+Function         Bfn.  Coefficient  Atom+Function  
  ----- ------------  ---------------      ----- ------------  ---------------
   177     -0.176962  11 C  pz               14      0.172788   2 C  px        
    44     -0.170717   4 H  s               254      0.159363  16 O  pz        
   205      0.152900  13 H  s         

 Vector   52  Occ=2.000000D+00  E=-5.806474D-01
              MO Center= -5.7D-01, -2.1D+00,  3.1D-01, r^2= 1.1D+01
   Bfn.  Coefficient  Atom+Function         Bfn.  Coefficient  Atom+Function  
  ----- ------------  ---------------      ----- ------------  ---------------
    14      0.267024   2 C  px               36      0.238386   3 H  s         
    35      0.236712   3 H  s                82      0.184836   6 O  px        
   176      0.165173  11 C  py                1     -0.154669   1 H  s         

 Vector   53  Occ=2.000000D+00  E=-5.671338D-01
              MO Center=  8.4D-01,  7.7D-01, -3.4D-01, r^2= 8.6D+00
   Bfn.  Coefficient  Atom+Function         Bfn.  Coefficient  Atom+Function  
  ----- ------------  ---------------      ----- ------------  ---------------
   311      0.206143  19 C  px              456      0.196309  28 O  px        
   431      0.193865  27 C  px              345     -0.173506  21 C  px        
   481      0.165347  29 N  px              459      0.153194  28 O  px        

 Vector   54  Occ=2.000000D+00  E=-5.531541D-01
              MO Center= -6.0D-01, -2.0D+00, -3.8D-01, r^2= 9.9D+00
   Bfn.  Coefficient  Atom+Function         Bfn.  Coefficient  Atom+Function  
  ----- ------------  ---------------      ----- ------------  ---------------
   206      0.306125  13 H  s               205      0.227628  13 H  s         
    35     -0.215084   3 H  s               108      0.203696   7 N  py        
   176      0.196988  11 C  py               14     -0.180307   2 C  px        
    36     -0.168394   3 H  s                16     -0.158494   2 C  pz        
    55     -0.156212   5 C  s                12      0.154640   2 C  s         

 Vector   55  Occ=2.000000D+00  E=-5.510445D-01
              MO Center= -1.4D+00, -7.0D-01, -7.2D-01, r^2= 8.4D+00
   Bfn.  Coefficient  Atom+Function         Bfn.  Coefficient  Atom+Function  
  ----- ------------  ---------------      ----- ------------  ---------------
   214      0.244960  14 H  s               215      0.245450  14 H  s         
   163     -0.220574  10 H  s               196     -0.194900  12 H  s         
   197     -0.195607  12 H  s               252     -0.195786  16 O  px        
   176     -0.184427  11 C  py              177     -0.174277  11 C  pz        
   229     -0.150040  15 C  pz        

 Vector   56  Occ=2.000000D+00  E=-5.393547D-01
              MO Center= -1.6D-01,  2.2D+00,  3.0D-01, r^2= 7.1D+00
   Bfn.  Coefficient  Atom+Function         Bfn.  Coefficient  Atom+Function  
  ----- ------------  ---------------      ----- ------------  ---------------
   343      0.317290  21 C  s               551      0.237381  33 O  pz        
   576      0.234291  34 N  pz              526      0.217293  32 C  pz        
   579      0.184494  34 N  pz              309     -0.177342  19 C  s         
   418      0.171817  26 H  s               554      0.171527  33 O  pz        
   390      0.165595  24 C  pz              313     -0.161649  19 C  pz        

 Vector   57  Occ=2.000000D+00  E=-5.327439D-01
              MO Center=  1.1D-01, -1.1D+00,  2.7D-02, r^2= 1.1D+01
   Bfn.  Coefficient  Atom+Function         Bfn.  Coefficient  Atom+Function  
  ----- ------------  ---------------      ----- ------------  ---------------
   375      0.186340  23 H  s                83      0.179234   6 O  py        
   346      0.175573  21 C  py               44     -0.156460   4 H  s         
   109      0.155795   7 N  pz              343      0.152217  21 C  s         

 Vector   58  Occ=2.000000D+00  E=-5.255095D-01
              MO Center=  6.3D-01,  3.5D-02,  1.8D-01, r^2= 1.1D+01
   Bfn.  Coefficient  Atom+Function         Bfn.  Coefficient  Atom+Function  
  ----- ------------  ---------------      ----- ------------  ---------------
   376      0.235657  23 H  s               375      0.216116  23 H  s         
   253     -0.180712  16 O  py               84     -0.172958   6 O  pz        
   346      0.162260  21 C  py        

 Vector   59  Occ=2.000000D+00  E=-5.212831D-01
              MO Center= -9.1D-01, -7.2D-01, -8.0D-01, r^2= 6.4D+00
   Bfn.  Coefficient  Atom+Function         Bfn.  Coefficient  Atom+Function  
  ----- ------------  ---------------      ----- ------------  ---------------
   141      0.318649   9 C  px              175     -0.271898  11 C  px        
   163      0.257211  10 H  s               162      0.240889  10 H  s         
   196      0.196318  12 H  s               376      0.178930  23 H  s         
   178     -0.166481  11 C  px              197      0.166520  12 H  s         
   309      0.157593  19 C  s               180     -0.153116  11 C  pz        

 Vector   60  Occ=2.000000D+00  E=-5.095503D-01
              MO Center=  1.4D+00,  1.6D+00,  7.9D-02, r^2= 6.0D+00
   Bfn.  Coefficient  Atom+Function         Bfn.  Coefficient  Atom+Function  
  ----- ------------  ---------------      ----- ------------  ---------------
   388      0.296795  24 C  px              345     -0.230913  21 C  px        
   346      0.204961  21 C  py              391      0.192048  24 C  px        

 Vector   61  Occ=2.000000D+00  E=-4.930214D-01
              MO Center=  1.2D+00,  2.1D+00,  1.5D-01, r^2= 3.9D+00
   Bfn.  Coefficient  Atom+Function         Bfn.  Coefficient  Atom+Function  
  ----- ------------  ---------------      ----- ------------  ---------------
   366     -0.257074  22 H  s               347      0.241703  21 C  pz        
   410      0.229663  25 H  s               313     -0.206299  19 C  pz        
   348     -0.203773  21 C  px              332     -0.202681  20 H  s         
   418     -0.189776  26 H  s               390     -0.180069  24 C  pz        
   419     -0.175545  26 H  s               367     -0.172963  22 H  s         

 Vector   62  Occ=2.000000D+00  E=-4.486875D-01
              MO Center= -9.6D-01, -4.1D-01,  3.5D-01, r^2= 6.0D+00
   Bfn.  Coefficient  Atom+Function         Bfn.  Coefficient  Atom+Function  
  ----- ------------  ---------------      ----- ------------  ---------------
   253      0.364304  16 O  py              256      0.294327  16 O  py        
   252      0.212049  16 O  px              109      0.177814   7 N  pz        
    84     -0.174507   6 O  pz              255      0.172359  16 O  px        
   549     -0.164143  33 O  px              112      0.155411   7 N  pz        

 Vector   63  Occ=2.000000D+00  E=-4.391679D-01
              MO Center=  5.7D-01, -2.7D+00,  3.0D-01, r^2= 4.4D+00
   Bfn.  Coefficient  Atom+Function         Bfn.  Coefficient  Atom+Function  
  ----- ------------  ---------------      ----- ------------  ---------------
    83      0.377708   6 O  py               84     -0.328835   6 O  pz        
    86      0.300157   6 O  py               87     -0.258983   6 O  pz        
   105     -0.196990   7 N  s                18      0.195806   2 C  py        
    12      0.169123   2 C  s                15      0.163583   2 C  py        

 Vector   64  Occ=2.000000D+00  E=-4.371558D-01
              MO Center= -8.4D-01,  1.5D+00,  2.8D-01, r^2= 8.0D+00
   Bfn.  Coefficient  Atom+Function         Bfn.  Coefficient  Atom+Function  
  ----- ------------  ---------------      ----- ------------  ---------------
   549      0.377240  33 O  px              552      0.294223  33 O  px        
   253      0.247328  16 O  py              256      0.197524  16 O  py        
   277      0.197285  17 N  px              280      0.171818  17 N  px        
   276     -0.168802  17 N  s               343      0.163202  21 C  s         
   252     -0.154082  16 O  px        

 Vector   65  Occ=2.000000D+00  E=-4.216076D-01
              MO Center=  2.1D+00,  1.3D-01, -8.1D-01, r^2= 3.6D+00
   Bfn.  Coefficient  Atom+Function         Bfn.  Coefficient  Atom+Function  
  ----- ------------  ---------------      ----- ------------  ---------------
   457      0.503620  28 O  py              460      0.405509  28 O  py        
   344      0.250671  21 C  s               435     -0.230679  27 C  py        
   343      0.210492  21 C  s               276     -0.198354  17 N  s         
   376     -0.197889  23 H  s               389      0.184704  24 C  py        

 Vector   66  Occ=2.000000D+00  E=-4.136258D-01
              MO Center=  4.2D-01, -9.8D-01, -1.2D-01, r^2= 7.2D+00
   Bfn.  Coefficient  Atom+Function         Bfn.  Coefficient  Atom+Function  
  ----- ------------  ---------------      ----- ------------  ---------------
   481      0.249231  29 N  px              456     -0.241625  28 O  px        
   109      0.234502   7 N  pz              484      0.231345  29 N  px        
   253     -0.217125  16 O  py              112      0.211814   7 N  pz        
   459     -0.200097  28 O  px              256     -0.186993  16 O  py        
   480      0.173742  29 N  s               386      0.160065  24 C  s         

 Vector   67  Occ=2.000000D+00  E=-4.064456D-01
              MO Center=  9.9D-01, -1.6D-01, -1.2D-01, r^2= 9.0D+00
   Bfn.  Coefficient  Atom+Function         Bfn.  Coefficient  Atom+Function  
  ----- ------------  ---------------      ----- ------------  ---------------
   481      0.312353  29 N  px              484      0.269960  29 N  px        
   456     -0.224038  28 O  px              109     -0.194181   7 N  pz        
   480      0.189453  29 N  s               459     -0.181536  28 O  px        
   549     -0.179717  33 O  px              112     -0.169677   7 N  pz        
    83      0.158959   6 O  py        

 Vector   68  Occ=2.000000D+00  E=-3.996915D-01
              MO Center= -1.5D+00,  2.7D+00,  3.0D-01, r^2= 5.2D+00
   Bfn.  Coefficient  Atom+Function         Bfn.  Coefficient  Atom+Function  
  ----- ------------  ---------------      ----- ------------  ---------------
   576      0.413606  34 N  pz              551     -0.364537  33 O  pz        
   579      0.352790  34 N  pz              554     -0.284171  33 O  pz        

 Vector   69  Occ=2.000000D+00  E=-3.881756D-01
              MO Center= -5.3D-01,  1.6D+00,  8.2D-02, r^2= 6.1D+00
   Bfn.  Coefficient  Atom+Function         Bfn.  Coefficient  Atom+Function  
  ----- ------------  ---------------      ----- ------------  ---------------
   549     -0.278006  33 O  px              277      0.253393  17 N  px        
   280      0.229264  17 N  px              552     -0.220953  33 O  px        
   278     -0.177654  17 N  py              252     -0.163203  16 O  px        
   522      0.160429  32 C  s         

 Vector   70  Occ=0.000000D+00  E= 2.551741D-02
              MO Center= -2.4D+00, -4.2D+00, -1.4D-01, r^2= 2.3D+01
   Bfn.  Coefficient  Atom+Function         Bfn.  Coefficient  Atom+Function  
  ----- ------------  ---------------      ----- ------------  ---------------
   523      2.868648  32 C  s               148     -2.331854   9 C  py        
    12      2.219980   2 C  s               173      1.808928  11 C  s         
     3     -1.721767   1 H  s               226      1.691454  15 C  s         
    64     -1.627945   5 C  py              310      1.616744  19 C  s         
   106     -1.575154   7 N  s               234     -1.478131  15 C  py        

 Vector   71  Occ=0.000000D+00  E= 3.385380D-02
              MO Center=  1.8D+00, -6.8D-01,  1.7D+00, r^2= 3.3D+01
   Bfn.  Coefficient  Atom+Function         Bfn.  Coefficient  Atom+Function  
  ----- ------------  ---------------      ----- ------------  ---------------
    56      2.779729   5 C  s               430     -2.769078  27 C  s         
   147     -2.749582   9 C  px              226     -2.677305  15 C  s         
   149     -2.544311   9 C  pz               64      2.398192   5 C  py        
   174     -2.222423  11 C  s               351     -2.129656  21 C  px        
   317     -1.984978  19 C  px               37      1.677850   3 H  s         

 Vector   72  Occ=0.000000D+00  E= 3.815014D-02
              MO Center= -1.3D+00, -5.3D-01, -1.9D-01, r^2= 4.4D+01
   Bfn.  Coefficient  Atom+Function         Bfn.  Coefficient  Atom+Function  
  ----- ------------  ---------------      ----- ------------  ---------------
   523      3.011838  32 C  s                64      2.876240   5 C  py        
   147     -2.120332   9 C  px               12     -2.016164   2 C  s         
   430      2.005158  27 C  s               149     -1.891371   9 C  pz        
   207     -1.848520  13 H  s               310      1.826630  19 C  s         
   317      1.827451  19 C  px               65     -1.722888   5 C  pz        

 Vector   73  Occ=0.000000D+00  E= 4.275604D-02
              MO Center= -1.9D+00, -7.3D-01, -2.2D-01, r^2= 4.0D+01
   Bfn.  Coefficient  Atom+Function         Bfn.  Coefficient  Atom+Function  
  ----- ------------  ---------------      ----- ------------  ---------------
   216      3.041673  14 H  s               317     -2.606902  19 C  px        
   530     -2.500787  32 C  px               46     -2.450274   4 H  s         
    64     -2.348022   5 C  py              234     -2.297284  15 C  py        
   344      1.981585  21 C  s               198     -1.824067  12 H  s         
   573     -1.752126  34 N  s               334     -1.701228  20 H  s         

 Vector   74  Occ=0.000000D+00  E= 4.839603D-02
              MO Center=  1.9D-01, -1.6D+00,  3.5D-01, r^2= 4.3D+01
   Bfn.  Coefficient  Atom+Function         Bfn.  Coefficient  Atom+Function  
  ----- ------------  ---------------      ----- ------------  ---------------
    37      3.219435   3 H  s               130     -2.814752   8 H  s         
   207      2.557399  13 H  s               106     -2.529936   7 N  s         
   480      2.338685  29 N  s               317      2.036807  19 C  px        
   411     -2.040952  25 H  s               430     -1.722367  27 C  s         
   523      1.722575  32 C  s               420     -1.666380  26 H  s         

 Vector   75  Occ=0.000000D+00  E= 5.240039D-02
              MO Center=  1.2D+00,  6.8D-01,  4.2D-02, r^2= 4.5D+01
   Bfn.  Coefficient  Atom+Function         Bfn.  Coefficient  Atom+Function  
  ----- ------------  ---------------      ----- ------------  ---------------
   411      3.326103  25 H  s               317     -2.956308  19 C  px        
   480     -2.181410  29 N  s               523     -1.927195  32 C  s         
   226     -1.855450  15 C  s               387      1.849155  24 C  s         
   216     -1.798461  14 H  s               147     -1.769902   9 C  px        
   368      1.703671  22 H  s               395     -1.588315  24 C  py        

 Vector   76  Occ=0.000000D+00  E= 5.569144D-02
              MO Center= -2.8D-01, -3.2D-02,  1.1D+00, r^2= 4.3D+01
   Bfn.  Coefficient  Atom+Function         Bfn.  Coefficient  Atom+Function  
  ----- ------------  ---------------      ----- ------------  ---------------
   234      4.196703  15 C  py              411      3.212102  25 H  s         
   420     -3.018569  26 H  s               523     -2.955565  32 C  s         
     3     -2.739856   1 H  s               198      2.621316  12 H  s         
   334     -2.525372  20 H  s               319      2.337131  19 C  pz        
   317     -2.289326  19 C  px              318      2.189212  19 C  py        

 Vector   77  Occ=0.000000D+00  E= 5.817459D-02
              MO Center= -9.2D-01, -7.1D-01,  2.4D-01, r^2= 4.1D+01
   Bfn.  Coefficient  Atom+Function         Bfn.  Coefficient  Atom+Function  
  ----- ------------  ---------------      ----- ------------  ---------------
   234     -3.366218  15 C  py               46      3.257684   4 H  s         
   207      3.192398  13 H  s               174     -3.086152  11 C  s         
   368      2.900884  22 H  s               198     -2.844675  12 H  s         
   226     -2.656937  15 C  s               438     -2.495734  27 C  py        
   310      2.301520  19 C  s               318     -2.252534  19 C  py        

 Vector   78  Occ=0.000000D+00  E= 6.440297D-02
              MO Center= -8.8D-02, -1.3D+00, -3.0D-01, r^2= 4.2D+01
   Bfn.  Coefficient  Atom+Function         Bfn.  Coefficient  Atom+Function  
  ----- ------------  ---------------      ----- ------------  ---------------
   430      5.291499  27 C  s               164     -4.696913  10 H  s         
   198      3.407961  12 H  s                37      3.161383   3 H  s         
   480     -3.107962  29 N  s               420      2.991104  26 H  s         
   387      2.939266  24 C  s                56      2.806979   5 C  s         
    64      2.674856   5 C  py              147      2.643480   9 C  px        

 Vector   79  Occ=0.000000D+00  E= 6.901796D-02
              MO Center=  4.8D-03, -1.1D+00, -3.2D-01, r^2= 4.4D+01
   Bfn.  Coefficient  Atom+Function         Bfn.  Coefficient  Atom+Function  
  ----- ------------  ---------------      ----- ------------  ---------------
   207      4.095026  13 H  s               216     -3.457561  14 H  s         
     3      3.201494   1 H  s               368      2.976902  22 H  s         
    37     -2.935606   3 H  s               377     -2.900693  23 H  s         
    56     -2.720589   5 C  s               226      2.391066  15 C  s         
   420      2.184834  26 H  s               411     -1.889549  25 H  s         

 Vector   80  Occ=0.000000D+00  E= 7.310322D-02
              MO Center=  4.6D-02, -6.7D-03, -2.7D-02, r^2= 4.4D+01
   Bfn.  Coefficient  Atom+Function         Bfn.  Coefficient  Atom+Function  
  ----- ------------  ---------------      ----- ------------  ---------------
   430      4.591645  27 C  s               368     -3.782431  22 H  s         
   411      3.456040  25 H  s               216      3.305392  14 H  s         
   164     -3.067836  10 H  s                46      2.848626   4 H  s         
   480     -2.817415  29 N  s               387      2.591895  24 C  s         
   130     -2.287227   8 H  s               334     -2.259675  20 H  s         

 Vector   81  Occ=0.000000D+00  E= 7.884067D-02
              MO Center= -7.6D-01,  5.7D-01, -3.5D-01, r^2= 4.3D+01
   Bfn.  Coefficient  Atom+Function         Bfn.  Coefficient  Atom+Function  
  ----- ------------  ---------------      ----- ------------  ---------------
   148      3.208094   9 C  py              164     -3.194747  10 H  s         
   216      3.203985  14 H  s               130      3.070453   8 H  s         
   597     -3.011726  35 H  s               377      2.819607  23 H  s         
   513      2.791417  31 H  s               198     -2.756637  12 H  s         
   420     -2.644506  26 H  s               149     -2.595709   9 C  pz        

 Vector   82  Occ=0.000000D+00  E= 8.229730D-02
              MO Center=  1.2D+00,  7.9D-01,  2.3D-01, r^2= 3.8D+01
   Bfn.  Coefficient  Atom+Function         Bfn.  Coefficient  Atom+Function  
  ----- ------------  ---------------      ----- ------------  ---------------
   334      6.605754  20 H  s               377     -5.192071  23 H  s         
   368      4.364889  22 H  s               319     -4.038004  19 C  pz        
   164     -3.920024  10 H  s               420     -3.881962  26 H  s         
    56      3.614246   5 C  s               353      3.507392  21 C  pz        
   395     -3.250456  24 C  py              411      3.056351  25 H  s         

 Vector   83  Occ=0.000000D+00  E= 8.688632D-02
              MO Center=  9.9D-01, -4.2D-01, -1.6D-01, r^2= 4.0D+01
   Bfn.  Coefficient  Atom+Function         Bfn.  Coefficient  Atom+Function  
  ----- ------------  ---------------      ----- ------------  ---------------
   420      6.418548  26 H  s               164      6.232254  10 H  s         
   334     -5.310486  20 H  s               430      5.247896  27 C  s         
   504     -4.645323  30 H  s               147     -4.514039   9 C  px        
   480     -4.027548  29 N  s               368      3.857000  22 H  s         
   207     -3.744196  13 H  s               396     -3.282681  24 C  pz        

 Vector   84  Occ=0.000000D+00  E= 9.190421D-02
              MO Center= -4.5D-01, -6.9D-01,  2.4D-01, r^2= 4.6D+01
   Bfn.  Coefficient  Atom+Function         Bfn.  Coefficient  Atom+Function  
  ----- ------------  ---------------      ----- ------------  ---------------
   130      5.553849   8 H  s               198     -4.144417  12 H  s         
   149     -4.001546   9 C  pz              276      3.936628  17 N  s         
    37      3.818726   3 H  s               318      3.441848  19 C  py        
   377     -3.437394  23 H  s               164     -3.407833  10 H  s         
   300      3.346070  18 H  s               430      3.337761  27 C  s         

 Vector   85  Occ=0.000000D+00  E= 9.428361D-02
              MO Center= -1.1D+00,  6.8D-01,  1.1D-01, r^2= 4.0D+01
   Bfn.  Coefficient  Atom+Function         Bfn.  Coefficient  Atom+Function  
  ----- ------------  ---------------      ----- ------------  ---------------
   430      8.109561  27 C  s               597      6.147015  35 H  s         
   234     -5.963897  15 C  py              198     -5.740177  12 H  s         
   420     -4.293483  26 H  s               377      3.873112  23 H  s         
   207      3.705899  13 H  s               368     -3.437637  22 H  s         
   513      2.878827  31 H  s               353     -2.854662  21 C  pz        

 Vector   86  Occ=0.000000D+00  E= 1.048915D-01
              MO Center=  3.0D-02, -1.1D+00, -1.6D-01, r^2= 3.7D+01
   Bfn.  Coefficient  Atom+Function         Bfn.  Coefficient  Atom+Function  
  ----- ------------  ---------------      ----- ------------  ---------------
   164      7.653503  10 H  s               430      7.528115  27 C  s         
   597     -6.193767  35 H  s               420     -5.842608  26 H  s         
   234      4.812145  15 C  py              344     -4.627202  21 C  s         
   504     -4.350616  30 H  s               198      4.177416  12 H  s         
   334      4.143360  20 H  s               216     -4.046546  14 H  s         

 Vector   87  Occ=0.000000D+00  E= 1.056946D-01
              MO Center=  8.4D-01, -6.8D-01, -7.8D-02, r^2= 3.8D+01
   Bfn.  Coefficient  Atom+Function         Bfn.  Coefficient  Atom+Function  
  ----- ------------  ---------------      ----- ------------  ---------------
   430      9.348439  27 C  s               344     -8.185400  21 C  s         
   164     -7.290537  10 H  s               420      6.274175  26 H  s         
   504      4.573020  30 H  s               513     -4.101898  31 H  s         
   377     -4.005129  23 H  s               149     -3.864504   9 C  pz        
   235      3.646010  15 C  pz              480     -3.625857  29 N  s         

 Vector   88  Occ=0.000000D+00  E= 1.202722D-01
              MO Center= -8.1D-01,  8.3D-01, -1.7D+00, r^2= 3.0D+01
   Bfn.  Coefficient  Atom+Function         Bfn.  Coefficient  Atom+Function  
  ----- ------------  ---------------      ----- ------------  ---------------
   300     13.317683  18 H  s               523     -8.589979  32 C  s         
   318      8.325971  19 C  py              164     -6.488156  10 H  s         
   430      6.354095  27 C  s               368     -5.816777  22 H  s         
   319      5.137103  19 C  pz              207     -5.023833  13 H  s         
   234      4.865087  15 C  py              174      4.796944  11 C  s         

 Vector   89  Occ=0.000000D+00  E= 1.267719D-01
              MO Center=  5.9D-01,  1.2D+00, -3.4D-01, r^2= 3.4D+01
   Bfn.  Coefficient  Atom+Function         Bfn.  Coefficient  Atom+Function  
  ----- ------------  ---------------      ----- ------------  ---------------
   344     13.387940  21 C  s               300    -10.786144  18 H  s         
   430     -9.268277  27 C  s               523     -7.716633  32 C  s         
   368      5.999839  22 H  s               164      5.838379  10 H  s         
   317     -5.813157  19 C  px               56      5.211423   5 C  s         
   139     -4.188291   9 C  s               531      3.833593  32 C  py        

 Vector   90  Occ=0.000000D+00  E= 1.295092D-01
              MO Center=  1.5D+00, -3.4D-01,  2.0D-01, r^2= 3.6D+01
   Bfn.  Coefficient  Atom+Function         Bfn.  Coefficient  Atom+Function  
  ----- ------------  ---------------      ----- ------------  ---------------
   430     22.295506  27 C  s               480     -9.404305  29 N  s         
   344     -9.080236  21 C  s               318      7.903422  19 C  py        
   174      7.379752  11 C  s               310     -7.184660  19 C  s         
   523     -6.712290  32 C  s               439      5.376934  27 C  pz        
   395      5.007509  24 C  py              276      4.613724  17 N  s         

 Vector   91  Occ=0.000000D+00  E= 1.328990D-01
              MO Center= -2.9D-01, -4.2D-01,  5.6D-02, r^2= 3.4D+01
   Bfn.  Coefficient  Atom+Function         Bfn.  Coefficient  Atom+Function  
[...]
   234      6.058589  15 C  py              285     -5.470521  17 N  pz        
   318      5.409787  19 C  py              344     -5.274352  21 C  s         
   438     -5.005304  27 C  py              351      4.764897  21 C  px        
   226      4.584360  15 C  s               235      4.342535  15 C  pz        

 Vector  172  Occ=0.000000D+00  E= 4.338449D-01
              MO Center=  1.1D-01,  4.4D-01,  5.7D-02, r^2= 2.0D+01
   Bfn.  Coefficient  Atom+Function         Bfn.  Coefficient  Atom+Function  
  ----- ------------  ---------------      ----- ------------  ---------------
   276     20.223703  17 N  s               480    -14.595497  29 N  s         
   318     12.166007  19 C  py              430     11.951066  27 C  s         
   235      9.196215  15 C  pz              523     -9.118098  32 C  s         
   106      8.927288   7 N  s               149     -8.664615   9 C  pz        
   140     -8.165924   9 C  s                56      7.234286   5 C  s         

 Vector  173  Occ=0.000000D+00  E= 4.384130D-01
              MO Center=  2.5D-01, -2.7D-01,  4.2D-01, r^2= 2.1D+01
   Bfn.  Coefficient  Atom+Function         Bfn.  Coefficient  Atom+Function  
  ----- ------------  ---------------      ----- ------------  ---------------
   523      7.119905  32 C  s               480      6.215633  29 N  s         
   318     -5.468782  19 C  py              430     -4.831235  27 C  s         
   319      4.396052  19 C  pz              334     -4.356837  20 H  s         
   420      4.232787  26 H  s               344     -4.069896  21 C  s         
   411     -4.072790  25 H  s               164     -3.895457  10 H  s         

 Vector  174  Occ=0.000000D+00  E= 4.427291D-01
              MO Center= -1.1D-01, -5.4D-01, -5.0D-01, r^2= 2.0D+01
   Bfn.  Coefficient  Atom+Function         Bfn.  Coefficient  Atom+Function  
  ----- ------------  ---------------      ----- ------------  ---------------
   430     12.908991  27 C  s               276     10.603309  17 N  s         
    13     -9.051231   2 C  s               480     -8.807402  29 N  s         
   148     -8.737512   9 C  py              147      7.826788   9 C  px        
   387      6.362921  24 C  s                56     -6.180073   5 C  s         
   173     -5.965167  11 C  s               164     -5.918251  10 H  s         

 Vector  175  Occ=0.000000D+00  E= 4.468003D-01
              MO Center=  7.3D-01, -3.4D-01,  2.9D-01, r^2= 1.9D+01
   Bfn.  Coefficient  Atom+Function         Bfn.  Coefficient  Atom+Function  
  ----- ------------  ---------------      ----- ------------  ---------------
   430     11.152991  27 C  s               234     -9.915572  15 C  py        
   173     -7.653628  11 C  s               226     -5.333221  15 C  s         
    12     -4.662305   2 C  s                 2      4.433076   1 H  s         
   106     -4.446576   7 N  s               164     -4.180526  10 H  s         
   386      4.193098  24 C  s               343      3.889948  21 C  s         

 Vector  176  Occ=0.000000D+00  E= 4.520699D-01
              MO Center=  4.1D-01, -1.9D+00,  1.2D-01, r^2= 2.3D+01
   Bfn.  Coefficient  Atom+Function         Bfn.  Coefficient  Atom+Function  
  ----- ------------  ---------------      ----- ------------  ---------------
   430     16.460953  27 C  s               523     -9.538975  32 C  s         
   234      9.165348  15 C  py              106      7.255223   7 N  s         
   147     -7.169319   9 C  px              310     -6.560123  19 C  s         
   113      6.144269   7 N  px              387      5.999286  24 C  s         
   233      5.360378  15 C  px              317     -4.998648  19 C  px        

 Vector  177  Occ=0.000000D+00  E= 4.549574D-01
              MO Center=  3.5D-01, -6.6D-01, -6.2D-01, r^2= 2.0D+01
   Bfn.  Coefficient  Atom+Function         Bfn.  Coefficient  Atom+Function  
  ----- ------------  ---------------      ----- ------------  ---------------
   430     11.582869  27 C  s               276      9.102244  17 N  s         
   344     -7.876491  21 C  s               140     -7.309277   9 C  s         
   300      7.257819  18 H  s               439      6.890020  27 C  pz        
   438      6.588444  27 C  py              163      6.245340  10 H  s         
   148     -6.209022   9 C  py              284     -6.064350  17 N  py        

 Vector  178  Occ=0.000000D+00  E= 4.570694D-01
              MO Center= -1.5D-01, -6.9D-01, -3.7D-02, r^2= 2.2D+01
   Bfn.  Coefficient  Atom+Function         Bfn.  Coefficient  Atom+Function  
  ----- ------------  ---------------      ----- ------------  ---------------
   234     18.321554  15 C  py              235     12.108296  15 C  pz        
   318     11.782080  19 C  py              523    -11.399439  32 C  s         
   226     11.150656  15 C  s               106      9.914352   7 N  s         
    12      7.596012   2 C  s               387     -7.097367  24 C  s         
   283      6.929103  17 N  px              276      5.742092  17 N  s         

 Vector  179  Occ=0.000000D+00  E= 4.608987D-01
              MO Center= -4.1D-01, -1.1D-01, -5.4D-01, r^2= 2.0D+01
   Bfn.  Coefficient  Atom+Function         Bfn.  Coefficient  Atom+Function  
  ----- ------------  ---------------      ----- ------------  ---------------
   276     14.051500  17 N  s               319      8.320541  19 C  pz        
   197     -7.962551  12 H  s               386     -7.132965  24 C  s         
   234     -6.610434  15 C  py              173      5.934477  11 C  s         
   523     -5.534015  32 C  s               284      5.294635  17 N  py        
   344     -5.085527  21 C  s               419      4.978465  26 H  s         

 Vector  180  Occ=0.000000D+00  E= 4.662581D-01
              MO Center=  5.0D-01,  7.3D-01, -1.2D-01, r^2= 2.1D+01
   Bfn.  Coefficient  Atom+Function         Bfn.  Coefficient  Atom+Function  
  ----- ------------  ---------------      ----- ------------  ---------------
   284     10.177830  17 N  py              396     -8.004231  24 C  pz        
   480     -7.600387  29 N  s               438     -6.998230  27 C  py        
   530     -6.882071  32 C  px              353      6.124019  21 C  pz        
   333     -5.847281  20 H  s               573     -5.829768  34 N  s         
   148      5.750301   9 C  py               56      5.657089   5 C  s         

 Vector  181  Occ=0.000000D+00  E= 4.719741D-01
              MO Center= -3.8D-02,  5.5D-01, -2.9D-01, r^2= 2.1D+01
   Bfn.  Coefficient  Atom+Function         Bfn.  Coefficient  Atom+Function  
  ----- ------------  ---------------      ----- ------------  ---------------
   523     12.356021  32 C  s               573     -8.880324  34 N  s         
   276     -8.718470  17 N  s               284     -8.686820  17 N  py        
   387      8.061465  24 C  s               174     -7.869884  11 C  s         
   530     -6.715473  32 C  px              226     -6.462793  15 C  s         
   317      6.375189  19 C  px               81      6.075598   6 O  s         

 Vector  182  Occ=0.000000D+00  E= 4.731210D-01
              MO Center= -1.1D+00, -2.5D-01, -3.1D-01, r^2= 1.8D+01
   Bfn.  Coefficient  Atom+Function         Bfn.  Coefficient  Atom+Function  
  ----- ------------  ---------------      ----- ------------  ---------------
   344     16.088800  21 C  s               226    -12.837645  15 C  s         
   174    -11.157667  11 C  s               317     -9.742497  19 C  px        
   173     -9.372594  11 C  s               430     -9.045786  27 C  s         
   215      7.221824  14 H  s                56      6.764117   5 C  s         
   149     -6.441407   9 C  pz              387      6.327014  24 C  s         

 Vector  183  Occ=0.000000D+00  E= 4.762555D-01
              MO Center=  4.7D-01, -1.0D-02, -1.1D-01, r^2= 2.0D+01
   Bfn.  Coefficient  Atom+Function         Bfn.  Coefficient  Atom+Function  
  ----- ------------  ---------------      ----- ------------  ---------------
   344     13.605111  21 C  s               430    -13.286242  27 C  s         
   523    -10.410070  32 C  s               226     -8.162819  15 C  s         
   174     -7.957876  11 C  s               317     -7.149208  19 C  px        
    56      6.980842   5 C  s               343     -6.398552  21 C  s         
   114      5.761436   7 N  py              149     -5.371004   9 C  pz        

 Vector  184  Occ=0.000000D+00  E= 4.823380D-01
              MO Center=  2.4D-02,  1.4D-01, -3.0D-01, r^2= 1.8D+01
   Bfn.  Coefficient  Atom+Function         Bfn.  Coefficient  Atom+Function  
  ----- ------------  ---------------      ----- ------------  ---------------
   284     11.689296  17 N  py              344    -10.863698  21 C  s         
   226     10.421042  15 C  s               387    -10.409203  24 C  s         
   317      9.904767  19 C  px              480      9.473962  29 N  s         
   173      8.698418  11 C  s               174      7.240544  11 C  s         
   197     -6.853046  12 H  s               215     -5.863738  14 H  s         

 Vector  185  Occ=0.000000D+00  E= 4.910960D-01
              MO Center= -9.4D-02, -3.4D-01,  2.5D-01, r^2= 2.1D+01
   Bfn.  Coefficient  Atom+Function         Bfn.  Coefficient  Atom+Function  
  ----- ------------  ---------------      ----- ------------  ---------------
   317     12.542542  19 C  px              148      9.654273   9 C  py        
   430     -8.583246  27 C  s               344     -8.350204  21 C  s         
   523      8.229192  32 C  s               530     -7.853963  32 C  px        
   147      7.277210   9 C  px              386     -6.547479  24 C  s         
   573     -6.361643  34 N  s               387     -6.140902  24 C  s         

 Vector  186  Occ=0.000000D+00  E= 4.931394D-01
              MO Center=  2.3D-01, -5.6D-01, -1.7D-01, r^2= 1.9D+01
   Bfn.  Coefficient  Atom+Function         Bfn.  Coefficient  Atom+Function  
  ----- ------------  ---------------      ----- ------------  ---------------
   430     10.807535  27 C  s               284      9.185887  17 N  py        
   480     -8.214583  29 N  s               148      7.727492   9 C  py        
    12     -7.262620   2 C  s               523     -7.285009  32 C  s         
    81     -7.180613   6 O  s               319      7.115166  19 C  pz        
   235     -6.784289  15 C  pz              114      6.493600   7 N  py        

 Vector  187  Occ=0.000000D+00  E= 4.952081D-01
              MO Center=  2.9D-02,  1.3D-01,  1.1D-01, r^2= 2.0D+01
   Bfn.  Coefficient  Atom+Function         Bfn.  Coefficient  Atom+Function  
  ----- ------------  ---------------      ----- ------------  ---------------
   523    -14.519926  32 C  s               174     14.039628  11 C  s         
   226     12.337858  15 C  s               310    -11.686235  19 C  s         
   149     11.416163   9 C  pz              386    -10.233864  24 C  s         
   139     -7.995739   9 C  s               234      8.000924  15 C  py        
   317     -7.997690  19 C  px              573      7.961429  34 N  s         

 Vector  188  Occ=0.000000D+00  E= 5.020917D-01
              MO Center=  9.7D-03,  7.0D-02, -4.1D-01, r^2= 2.0D+01
   Bfn.  Coefficient  Atom+Function         Bfn.  Coefficient  Atom+Function  
  ----- ------------  ---------------      ----- ------------  ---------------
   430     18.023413  27 C  s               480    -13.846742  29 N  s         
   387     10.254691  24 C  s               343     10.027293  21 C  s         
   367     -7.984313  22 H  s               106      7.622055   7 N  s         
   376     -6.173908  23 H  s               419     -5.935421  26 H  s         
   351     -5.634735  21 C  px              251     -5.357789  16 O  s         


 center of mass
 --------------
 x =   0.01229969 y =   0.05259636 z =   0.00054632

 moments of inertia (a.u.)
 ------------------
        5929.263130346339           0.000000000002          -0.000000000001
           0.000000000002        3277.800884691603          -0.000000000001
          -0.000000000001          -0.000000000001        7943.140136693823

  Mulliken analysis of the total density
  --------------------------------------

    Atom       Charge   Shell Charges
 -----------   ------   -------------------------------------------------------
    1 H    1     0.88   0.76  0.15 -0.00  0.03 -0.06
    2 C    6     6.15   2.01  0.66  0.24  0.02  2.07  0.99  0.02  0.06  0.09
    3 H    1     1.02   0.76  0.27  0.01  0.03 -0.05
    4 H    1     0.89   0.76  0.17 -0.01  0.03 -0.06
    5 C    6     5.25   2.01  0.68  0.11 -0.01  1.89  0.27  0.05  0.24  0.01
    6 O    8     8.80   2.01  0.81  0.99  0.16  2.80  1.85  0.19  0.01 -0.02
    7 N    7     7.66   2.01  0.72  0.84 -0.03  2.45  1.44  0.12  0.05  0.05
    8 H    1     0.95   0.77  0.18 -0.01  0.05 -0.05
    9 C    6     6.14   2.01  0.66  0.11  0.02  2.00  1.13 -0.09  0.14  0.16
   10 H    1     1.25   0.78  0.44  0.00  0.03  0.00
   11 C    6     5.73   2.01  0.66  0.27  0.14  2.04  0.52 -0.02  0.07  0.03
   12 H    1     0.90   0.77  0.16  0.02  0.03 -0.08
   13 H    1     0.94   0.77  0.21  0.01  0.03 -0.08
   14 H    1     0.89   0.77  0.18 -0.00  0.03 -0.09
   15 C    6     4.54   2.01  0.68  0.05 -0.03  1.89  0.17 -0.08  0.23 -0.39
   16 O    8     8.97   2.01  0.82  1.05  0.22  2.79  1.89  0.16  0.01  0.01
   17 N    7     7.57   2.01  0.72  0.89 -0.13  2.45  1.47  0.04  0.05  0.07
   18 H    1     0.80   0.74  0.13 -0.03  0.06 -0.09
   19 C    6     6.36   2.01  0.66  0.07  0.04  1.99  1.28  0.13  0.14  0.03
   20 H    1     1.04   0.79  0.20 -0.02  0.03  0.05
   21 C    6     6.15   2.01  0.66  0.58  0.04  2.03  0.63 -0.02  0.09  0.13
   22 H    1     0.83   0.78  0.10  0.00  0.03 -0.08
   23 H    1     0.99   0.78  0.28  0.00  0.03 -0.10
   24 C    6     6.35   2.01  0.66  0.53  0.01  2.04  0.87  0.02  0.09  0.12
   25 H    1     0.83   0.77  0.12  0.00  0.03 -0.09
   26 H    1     0.98   0.79  0.23 -0.01  0.03 -0.07
   27 C    6     4.76   2.01  0.68  0.03  0.13  1.90 -0.04  0.02  0.24 -0.20
   28 O    8     8.87   2.01  0.81  1.03  0.16  2.81  1.88  0.16  0.02 -0.01
   29 N    7     7.18   2.01  0.72  0.79 -0.16  2.47  1.27  0.06  0.04 -0.01
   30 H    1     0.87   0.72  0.16 -0.02  0.06 -0.05
   31 H    1     1.02   0.77  0.23 -0.00  0.05 -0.04
   32 C    6     4.52   2.01  0.68  0.07  0.05  1.89 -0.14 -0.04  0.24 -0.23
   33 O    8     8.76   2.01  0.82  1.03  0.15  2.79  1.82  0.14  0.01 -0.01
   34 N    7     7.26   2.01  0.72  0.83 -0.13  2.47  1.25  0.09  0.04 -0.02
   35 H    1     0.91   0.73  0.20 -0.01  0.06 -0.06
   36 H    1     1.01   0.76  0.23 -0.00  0.05 -0.03

       Multipole analysis of the density wrt the origin
       ------------------------------------------------

     L   x y z        total         open         nuclear
     -   - - -        -----         ----         -------
     0   0 0 0     -0.000000      0.000000    138.000000

     1   1 0 0     -0.665233      0.000000     -0.000000
     1   0 1 0     -1.906992      0.000000      0.000000
     1   0 0 1      0.575491      0.000000      0.000000

     2   2 0 0    -73.504613      0.000000   1467.965194
     2   1 1 0      9.881040      0.000000     43.739735
     2   1 0 1      9.919823      0.000000     32.231479
     2   0 2 0    -86.683377      0.000000   2890.451622
     2   0 1 1     -0.090675      0.000000     -7.595910
     2   0 0 2    -80.830948      0.000000    376.991172


 Task  times  cpu:     5708.0s     wall:     5881.1s


                                NWChem Input Module
                                -------------------


 Summary of allocated global arrays
-----------------------------------
  No active global arrays


MA_summarize_allocated_blocks: starting scan ...
MA_summarize_allocated_blocks: scan completed: 0 heap blocks, 0 stack blocks
MA usage statistics:

	allocation statistics:
					      heap	     stack
					      ----	     -----
	current number of blocks	         0	         0
	maximum number of blocks	        16	        14
	current total bytes		         0	         0
	maximum total bytes		    129872	  28238872
	maximum total K-bytes		       130	     28239
	maximum total M-bytes		         1	        29


                                     CITATION
                                     --------
                Please cite the following reference when publishing
                           results obtained with NWChem:

          E. Apra, E. J. Bylaska, W. A. de Jong, N. Govind, K. Kowalski,
       T. P. Straatsma, M. Valiev, H. J. J. van Dam, Y. Alexeev, J. Anchell,
       V. Anisimov, F. W. Aquino, R. Atta-Fynn, J. Autschbach, N. P. Bauman,
     J. C. Becca, D. E. Bernholdt, K. Bhaskaran-Nair, S. Bogatko, P. Borowski,
         J. Boschen, J. Brabec, A. Bruner, E. Cauet, Y. Chen, G. N. Chuev,
      C. J. Cramer, J. Daily, M. J. O. Deegan, T. H. Dunning Jr., M. Dupuis,
   K. G. Dyall, G. I. Fann, S. A. Fischer, A. Fonari, H. Fruchtl, L. Gagliardi,
      J. Garza, N. Gawande, S. Ghosh, K. Glaesemann, A. W. Gotz, J. Hammond,
       V. Helms, E. D. Hermes, K. Hirao, S. Hirata, M. Jacquelin, L. Jensen,
   B. G. Johnson, H. Jonsson, R. A. Kendall, M. Klemm, R. Kobayashi, V. Konkov,
      S. Krishnamoorthy, M. Krishnan, Z. Lin, R. D. Lins, R. J. Littlefield,
      A. J. Logsdail, K. Lopata, W. Ma, A. V. Marenich, J. Martin del Campo,
   D. Mejia-Rodriguez, J. E. Moore, J. M. Mullin, T. Nakajima, D. R. Nascimento,
    J. A. Nichols, P. J. Nichols, J. Nieplocha, A. Otero-de-la-Roza, B. Palmer,
    A. Panyala, T. Pirojsirikul, B. Peng, R. Peverati, J. Pittner, L. Pollack,
   R. M. Richard, P. Sadayappan, G. C. Schatz, W. A. Shelton, D. W. Silverstein,
   D. M. A. Smith, T. A. Soares, D. Song, M. Swart, H. L. Taylor, G. S. Thomas,
            V. Tipparaju, D. G. Truhlar, K. Tsemekhman, T. Van Voorhis,
      A. Vazquez-Mayagoitia, P. Verma, O. Villa, A. Vishnu, K. D. Vogiatzis,
        D. Wang, J. H. Weare, M. J. Williamson, T. L. Windus, K. Wolinski,
        A. T. Wong, Q. Wu, C. Yang, Q. Yu, M. Zacharias, Z. Zhang, Y. Zhao,
                                and R. J. Harrison
                        "NWChem: Past, present, and future
                         J. Chem. Phys. 152, 184102 (2020)
                               doi:10.1063/5.0004997

                                      AUTHORS
                                      -------
  E. Apra, E. J. Bylaska, N. Govind, K. Kowalski, M. Valiev, D. Mejia-Rodriguez,
       A. Kunitsa, N. P. Bauman, A. Panyala, W. A. de Jong, T. P. Straatsma,
   H. J. J. van Dam, D. Wang, T. L. Windus, J. Hammond, J. Autschbach, A. Woods,
    K. Bhaskaran-Nair, J. Brabec, K. Lopata, S. A. Fischer, S. Krishnamoorthy,
     M. Jacquelin, W. Ma, M. Klemm, O. Villa, Y. Chen, V. Anisimov, F. Aquino,
     S. Hirata, M. T. Hackler, E. Hermes, L. Jensen, J. E. Moore, J. C. Becca,
      V. Konjkov, T. Risthaus, M. Malagoli, A. Marenich, A. Otero-de-la-Roza,
        J. Mullin, P. Nichols, R. Peverati, J. Pittner, Y. Zhao, P.-D. Fan,
        A. Fonari, M. J. Williamson, R. J. Harrison, J. R. Rehr, M. Dupuis,
     D. Silverstein, D. M. A. Smith, J. Nieplocha, V. Tipparaju, M. Krishnan,
     B. E. Van Kuiken, A. Vazquez-Mayagoitia, M. Swart, Q. Wu, T. Van Voorhis,
     A. A. Auer, M. Nooijen, L. D. Crosby, E. Brown, G. Cisneros, G. I. Fann,
   H. Fruchtl, J. Garza, K. Hirao, R. A. Kendall, J. A. Nichols, K. Tsemekhman,
    K. Wolinski, J. Anchell, D. E. Bernholdt, P. Borowski, T. Clark, D. Clerc,
   H. Dachsel, M. J. O. Deegan, K. Dyall, D. Elwood, E. Glendening, M. Gutowski,
   A. C. Hess, J. Jaffe, B. G. Johnson, J. Ju, R. Kobayashi, R. Kutteh, Z. Lin,
   R. Littlefield, X. Long, B. Meng, T. Nakajima, S. Niu, L. Pollack, M. Rosing,
   K. Glaesemann, G. Sandrone, M. Stave, H. Taylor, G. Thomas, J. H. van Lenthe,
                               A. T. Wong, Z. Zhang.

 Total times  cpu:     5708.0s     wall:     5881.4s
