export TMOUT=5400
export TMPDIR=/tmp
export PTMPDIR=/tmp/ptmp
 argument  1 = inputs/ARG_GLY_0.nw



============================== echo of input deck ==============================
start ARG_GLY_0
geometry
H          9.28300        3.43000       -3.67000
C          9.63800        2.95600       -2.75600
H         10.55600        3.44300       -2.43000
H          9.83700        1.90100       -2.94000
C          8.59500        3.09300       -1.67300
O          8.86400        3.68600       -0.63500
N          7.39800        2.54400       -1.91800
H          7.30900        2.08300       -2.81200
C          6.20100        2.53600       -1.03800
H          5.41500        2.00800       -1.58000
C          6.51700        1.71200        0.23300
H          7.27600        0.96900       -0.01900
H          6.96100        2.36600        0.98600
C          5.34800        0.92300        0.85800
H          4.97600        0.21100        0.12000
H          5.75300        0.34300        1.68800
C          4.15200        1.73100        1.38900
H          3.57600        2.10700        0.54200
H          3.49000        1.06400        1.94400
N          4.55800        2.86500        2.24300
H          4.57400        3.77900        1.79900
C          4.91100        2.84600        3.51300
N          5.29600        3.94800        4.08200
H          5.33300        4.78300        3.50000
H          5.58100        3.97900        5.04100
N          4.89700        1.75800        4.23200
H          4.58500        0.90600        3.80500
H          5.16700        1.78200        5.19700
C          5.59800        3.92000       -0.72300
O          4.37900        4.03500       -0.67200
N          6.40200        4.96500       -0.53000
H          7.39900        4.78200       -0.52700
C          5.94200        6.33900       -0.29500
H          6.80400        7.00700       -0.27600
H          5.30400        6.64100       -1.12700
C          5.15600        6.53100        1.01000
O          5.19300        5.70400        1.92200
N          4.43300        7.63500        1.12900
H          4.40200        8.30600        0.37900
H          3.90500        7.78200        1.97500
end

basis
 * library aug-cc-pvdz
end

echo

scf
 direct
end

task scf energy
================================================================================


                                         
                                         


             Northwest Computational Chemistry Package (NWChem) 7.2.0
             --------------------------------------------------------


                    Environmental Molecular Sciences Laboratory
                       Pacific Northwest National Laboratory
                                Richland, WA 99352

                              Copyright (c) 1994-2022
                       Pacific Northwest National Laboratory
                            Battelle Memorial Institute

             NWChem is an open-source computational chemistry package
                        distributed under the terms of the
                      Educational Community License (ECL) 2.0
             A copy of the license is included with this distribution
                              in the LICENSE.TXT file

                                  ACKNOWLEDGMENT
                                  --------------

            This software and its documentation were developed at the
            EMSL at Pacific Northwest National Laboratory, a multiprogram
            national laboratory, operated for the U.S. Department of Energy
            by Battelle under Contract Number DE-AC05-76RL01830. Support
            for this work was provided by the Department of Energy Office
            of Biological and Environmental Research, Office of Basic
            Energy Sciences, and the Office of Advanced Scientific Computing.


           Job information
           ---------------

    hostname        = nova21-speedy-11
    program         = /opt/rit/el9/20230413/app/linux-rhel9-x86_64_v3/gcc-11.2.1/nwchem-7.2.0-oxtctbuhfuzyfaoziquq6bki22grib3g/bin/nwchem
    date            = Tue Jul  8 09:10:28 2025

    compiled        = Wed_May_17_23:46:39_2023
    source          = /tmp/root/spack-stage/spack-stage-nwchem-7.2.0-oxtctbuhfuzyfaoziquq6bki22grib3g/spack-src
    nwchem branch   = 7.2.0
    nwchem revision = d0d141fd
    ga revision     = 5.8.0
    use scalapack   = T
    input           = inputs/ARG_GLY_0.nw
    prefix          = ARG_GLY_0.
    data base       = ./ARG_GLY_0.db
    status          = startup
    nproc           =        1
    time left       =     -1s



           Memory information
           ------------------

    heap     =   26214394 doubles =    200.0 Mbytes
    stack    =   26214399 doubles =    200.0 Mbytes
    global   =   52428800 doubles =    400.0 Mbytes (distinct from heap & stack)
    total    =  104857593 doubles =    800.0 Mbytes
    verify   = yes
    hardfail = no 


           Directory information
           ---------------------

  0 permanent = .
  0 scratch   = .




                                NWChem Input Module
                                -------------------



 Scaling coordinates for geometry "geometry" by  1.889725989
 (inverse scale =  0.529177249)

 C1  symmetry detected

          ------
          auto-z
          ------
  no constraints, skipping    0.0000000000000000     
  no constraints, skipping    0.0000000000000000     


                             Geometry "geometry" -> ""
                             -------------------------

 Output coordinates in angstroms (scale by  1.889725989 to convert to a.u.)

  No.       Tag          Charge          X              Y              Z
 ---- ---------------- ---------- -------------- -------------- --------------
    1 H                    1.0000     0.23772958    -5.37664330     0.21061000
    2 C                    6.0000    -0.41804021    -4.89501706     0.93455692
    3 H                    1.0000    -0.07541135    -5.12686214     1.94204008
    4 H                    1.0000    -1.43716849    -5.25857001     0.80930202
    5 C                    6.0000    -0.38612214    -3.39889479     0.73429108
    6 O                    8.0000    -0.00998742    -2.66721572     1.64237830
    7 N                    7.0000    -0.78022625    -2.94380682    -0.46229234
    8 H                    1.0000    -1.06746711    -3.65316906    -1.12106081
    9 C                    6.0000    -0.84176497    -1.53391489    -0.92671752
   10 H                    1.0000    -1.19774493    -1.55707344    -1.95777812
   11 C                    6.0000    -1.90033809    -0.77520300    -0.09122234
   12 H                    1.0000    -2.64884976    -1.49327384     0.24898136
   13 H                    1.0000    -1.42900833    -0.36970507     0.80615198
   14 C                    6.0000    -2.68532491     0.34019792    -0.81190500
   15 H                    1.0000    -3.22226581    -0.10098080    -1.65275446
   16 H                    1.0000    -3.43449600     0.71501149    -0.11363395
   17 C                    6.0000    -1.88522639     1.54537506    -1.33404618
   18 H                    1.0000    -1.31867831     1.23828891    -2.21454739
   19 H                    1.0000    -2.58110594     2.31801269    -1.66561932
   20 N                    7.0000    -0.95770189     2.09929907    -0.32757984
   21 H                    1.0000     0.01550227     1.81858923    -0.41042691
   22 C                    6.0000    -1.22972394     2.91080342     0.67508396
   23 N                    7.0000    -0.28164285     3.24501537     1.49717557
   24 H                    1.0000     0.63659708     2.83366029     1.33925020
   25 H                    1.0000    -0.44413666     3.85120336     2.27691840
   26 N                    7.0000    -2.42215251     3.39507388     0.88602760
   27 H                    1.0000    -3.15621271     3.15548958     0.24623703
   28 H                    1.0000    -2.59129947     4.01424325     1.65591045
   29 C                    6.0000     0.51112861    -0.79688885    -0.99572167
   30 O                    8.0000     0.71800090    -0.02883321    -1.92796703
   31 N                    7.0000     1.43406442    -1.01641722    -0.05994030
   32 H                    1.0000     1.16976568    -1.61698575     0.71269844
   33 C                    6.0000     2.77914169    -0.42865289    -0.06105597
   34 H                    1.0000     3.35805832    -0.85739093     0.75788740
   35 H                    1.0000     3.27571596    -0.69417669    -0.99560565
   36 C                    6.0000     2.80419639     1.10002287     0.08109776
   37 O                    8.0000     1.82946008     1.73386718     0.48751198
   38 N                    7.0000     3.92712528     1.72383128    -0.24386343
   39 H                    1.0000     4.71984250     1.20206254    -0.58010559
   40 H                    1.0000     3.96702527     2.72778805    -0.16269825

      Atomic Mass 
      ----------- 

      H                  1.007825
      C                 12.000000
      O                 15.994910
      N                 14.003070


 Effective nuclear repulsion energy (a.u.)    1611.7155617159

            Nuclear Dipole moment (a.u.) 
            ----------------------------
        X                 Y               Z
 ---------------- ---------------- ----------------
     0.0000000000     0.0000000000    -0.0000000000



                                Z-matrix (autoz)
                                -------- 

 Units are Angstrom for bonds and degrees for angles

      Type          Name      I     J     K     L     M      Value
      ----------- --------  ----- ----- ----- ----- ----- ----------
    1 Stretch                  1     2                       1.08908
    2 Stretch                  2     3                       1.08911
    3 Stretch                  2     4                       1.08926
    4 Stretch                  2     5                       1.50980
    5 Stretch                  5     6                       1.22534
    6 Stretch                  5     7                       1.33949
    7 Stretch                  7     8                       1.00979
    8 Stretch                  7     9                       1.48569
    9 Stretch                  9    10                       1.09103
   10 Stretch                  9    11                       1.54734
   11 Stretch                  9    29                       1.54217
   12 Stretch                 11    12                       1.09162
   13 Stretch                 11    13                       1.09172
   14 Stretch                 11    14                       1.54263
   15 Stretch                 14    15                       1.09086
   16 Stretch                 14    16                       1.09056
   17 Stretch                 14    17                       1.53793
   18 Stretch                 17    18                       1.09113
   19 Stretch                 17    19                       1.09140
   20 Stretch                 17    20                       1.47652
   21 Stretch                 20    21                       1.01626
   22 Stretch                 20    22                       1.31828
   23 Stretch                 22    23                       1.29861
   24 Stretch                 22    26                       1.30419
   25 Stretch                 23    24                       1.01849
   26 Stretch                 23    25                       1.00093
   27 Stretch                 26    27                       1.00278
   28 Stretch                 26    28                       1.00235
   29 Stretch                 29    30                       1.22547
   30 Stretch                 29    31                       1.33255
   31 Stretch                 31    32                       1.01366
   32 Stretch                 31    33                       1.46789
   33 Stretch                 33    34                       1.09070
   34 Stretch                 33    35                       1.09109
   35 Stretch                 33    36                       1.53548
   36 Stretch                 36    37                       1.23168
   37 Stretch                 36    38                       1.32503
   38 Stretch                 38    39                       1.00683
   39 Stretch                 38    40                       1.00802
   40 Bend                     1     2     3               109.35027
   41 Bend                     1     2     4               109.83582
   42 Bend                     1     2     5               109.71384
   43 Bend                     2     5     6               119.99349
   44 Bend                     2     5     7               116.67573
   45 Bend                     3     2     4               109.24829
   46 Bend                     3     2     5               109.08661
   47 Bend                     4     2     5               109.58861
   48 Bend                     5     7     8               115.32837
   49 Bend                     5     7     9               127.86835
   50 Bend                     6     5     7               123.33061
   51 Bend                     7     9    10               106.78544
   52 Bend                     7     9    11               108.95731
   53 Bend                     7     9    29               115.54261
   54 Bend                     8     7     9               116.80327
   55 Bend                     9    11    12               108.35059
   56 Bend                     9    11    13               109.30511
   57 Bend                     9    11    14               116.76967
   58 Bend                     9    29    30               118.79379
   59 Bend                     9    29    31               119.83123
   60 Bend                    10     9    11               107.30564
   61 Bend                    10     9    29               104.71982
   62 Bend                    11     9    29               112.95331
   63 Bend                    11    14    15               108.55130
   64 Bend                    11    14    16               107.39424
   65 Bend                    11    14    17               117.41850
   66 Bend                    12    11    13               106.51040
   67 Bend                    12    11    14               105.80118
   68 Bend                    13    11    14               109.58102
   69 Bend                    14    17    18               108.87786
   70 Bend                    14    17    19               109.03804
   71 Bend                    14    17    20               112.91511
   72 Bend                    15    14    16               107.12194
   73 Bend                    15    14    17               108.13773
   74 Bend                    16    14    17               107.78472
   75 Bend                    17    20    21               116.25548
   76 Bend                    17    20    22               128.29891
   77 Bend                    18    17    19               106.56738
   78 Bend                    18    17    20               109.23700
   79 Bend                    19    17    20               110.00087
   80 Bend                    20    22    23               119.29253
   81 Bend                    20    22    26               122.70128
   82 Bend                    21    20    22               115.44474
   83 Bend                    22    23    24               117.13623
   84 Bend                    22    23    25               122.03936
   85 Bend                    22    26    27               118.51468
   86 Bend                    22    26    28               120.52363
   87 Bend                    23    22    26               118.00551
   88 Bend                    24    23    25               120.78115
   89 Bend                    27    26    28               120.93739
   90 Bend                    29    31    32               116.89070
   91 Bend                    29    31    33               124.62212
   92 Bend                    30    29    31               121.36902
   93 Bend                    31    33    34               109.17165
   94 Bend                    31    33    35               108.67792
   95 Bend                    31    33    36               114.42633
   96 Bend                    32    31    33               118.47251
   97 Bend                    33    36    37               122.00361
   98 Bend                    33    36    38               117.37592
   99 Bend                    34    33    35               107.81189
  100 Bend                    34    33    36               108.25041
  101 Bend                    35    33    36               108.30953
  102 Bend                    36    38    39               120.34319
  103 Bend                    36    38    40               118.86105
  104 Bend                    37    36    38               120.61904
  105 Bend                    39    38    40               120.78819
  106 Torsion                  1     2     5     6        -119.64144
  107 Torsion                  1     2     5     7          60.21598
  108 Torsion                  2     5     7     8           0.24224
  109 Torsion                  2     5     7     9        -179.70534
  110 Torsion                  3     2     5     6           0.12291
  111 Torsion                  3     2     5     7         179.98034
  112 Torsion                  4     2     5     6         119.68747
  113 Torsion                  4     2     5     7         -60.45510
  114 Torsion                  5     7     9    10         179.25832
  115 Torsion                  5     7     9    11         -65.13836
  116 Torsion                  5     7     9    29          63.26286
  117 Torsion                  6     5     7     8        -179.90555
  118 Torsion                  6     5     7     9           0.14687
  119 Torsion                  7     9    11    12         -27.59669
  120 Torsion                  7     9    11    13          88.08978
  121 Torsion                  7     9    11    14        -146.84923
  122 Torsion                  7     9    29    30         141.39280
  123 Torsion                  7     9    29    31         -37.73102
  124 Torsion                  8     7     9    10          -0.68860
  125 Torsion                  8     7     9    11         114.91472
  126 Torsion                  8     7     9    29        -116.68405
  127 Torsion                  9    11    14    15          60.16755
  128 Torsion                  9    11    14    16         175.67032
  129 Torsion                  9    11    14    17         -62.78949
  130 Torsion                  9    29    31    32          -4.79600
  131 Torsion                  9    29    31    33         176.62277
  132 Torsion                 10     9    11    12          87.67128
  133 Torsion                 10     9    11    13        -156.64225
  134 Torsion                 10     9    11    14         -31.58126
  135 Torsion                 10     9    29    30          24.23257
  136 Torsion                 10     9    29    31        -154.89124
  137 Torsion                 11     9    29    30         -92.20818
  138 Torsion                 11     9    29    31          88.66800
  139 Torsion                 11    14    17    18          73.41760
  140 Torsion                 11    14    17    19        -170.68349
  141 Torsion                 11    14    17    20         -48.08852
  142 Torsion                 12    11     9    29        -157.43225
  143 Torsion                 12    11    14    15         -60.44525
  144 Torsion                 12    11    14    16          55.05752
  145 Torsion                 12    11    14    17         176.59771
  146 Torsion                 13    11     9    29         -41.74578
  147 Torsion                 13    11    14    15        -174.91060
  148 Torsion                 13    11    14    16         -59.40783
  149 Torsion                 13    11    14    17          62.13236
  150 Torsion                 14    11     9    29          83.31520
  151 Torsion                 14    17    20    21          99.55904
  152 Torsion                 14    17    20    22         -80.08205
  153 Torsion                 15    14    17    18         -49.75010
  154 Torsion                 15    14    17    19          66.14880
  155 Torsion                 15    14    17    20        -171.25622
  156 Torsion                 16    14    17    18        -165.24470
  157 Torsion                 16    14    17    19         -49.34579
  158 Torsion                 16    14    17    20          73.24918
  159 Torsion                 17    20    22    23         176.93339
  160 Torsion                 17    20    22    26          -2.76081
  161 Torsion                 18    17    20    21         -21.74387
  162 Torsion                 18    17    20    22         158.61504
  163 Torsion                 19    17    20    21        -138.38539
  164 Torsion                 19    17    20    22          41.97352
  165 Torsion                 20    22    23    24          -1.79057
  166 Torsion                 20    22    23    25        -179.41440
  167 Torsion                 20    22    26    27          -1.40896
  168 Torsion                 20    22    26    28        -179.63262
  169 Torsion                 21    20    22    23          -2.71016
  170 Torsion                 21    20    22    26         177.59565
  171 Torsion                 23    22    26    27         178.89311
  172 Torsion                 23    22    26    28           0.66945
  173 Torsion                 24    23    22    26         177.91797
  174 Torsion                 25    23    22    26           0.29414
  175 Torsion                 29    31    33    34        -174.03621
  176 Torsion                 29    31    33    35         -56.68824
  177 Torsion                 29    31    33    36          64.49315
  178 Torsion                 30    29    31    32         176.10330
  179 Torsion                 30    29    31    33          -2.47793
  180 Torsion                 31    33    36    37          16.96292
  181 Torsion                 31    33    36    38        -163.47155
  182 Torsion                 32    31    33    34           7.40327
  183 Torsion                 32    31    33    35         124.75123
  184 Torsion                 32    31    33    36        -114.06737
  185 Torsion                 33    36    38    39           0.74139
  186 Torsion                 33    36    38    40         179.74796
  187 Torsion                 34    33    36    37        -105.01248
  188 Torsion                 34    33    36    38          74.55305
  189 Torsion                 35    33    36    37         138.34711
  190 Torsion                 35    33    36    38         -42.08736
  191 Torsion                 37    36    38    39        -179.68674
  192 Torsion                 37    36    38    40          -0.68016


            XYZ format geometry
            -------------------
    40
 geometry
 H                     0.23772958    -5.37664330     0.21061000
 C                    -0.41804021    -4.89501706     0.93455692
 H                    -0.07541135    -5.12686214     1.94204008
 H                    -1.43716849    -5.25857001     0.80930202
 C                    -0.38612214    -3.39889479     0.73429108
 O                    -0.00998742    -2.66721572     1.64237830
 N                    -0.78022625    -2.94380682    -0.46229234
 H                    -1.06746711    -3.65316906    -1.12106081
 C                    -0.84176497    -1.53391489    -0.92671752
 H                    -1.19774493    -1.55707344    -1.95777812
 C                    -1.90033809    -0.77520300    -0.09122234
 H                    -2.64884976    -1.49327384     0.24898136
 H                    -1.42900833    -0.36970507     0.80615198
 C                    -2.68532491     0.34019792    -0.81190500
 H                    -3.22226581    -0.10098080    -1.65275446
 H                    -3.43449600     0.71501149    -0.11363395
 C                    -1.88522639     1.54537506    -1.33404618
 H                    -1.31867831     1.23828891    -2.21454739
 H                    -2.58110594     2.31801269    -1.66561932
 N                    -0.95770189     2.09929907    -0.32757984
 H                     0.01550227     1.81858923    -0.41042691
 C                    -1.22972394     2.91080342     0.67508396
 N                    -0.28164285     3.24501537     1.49717557
 H                     0.63659708     2.83366029     1.33925020
 H                    -0.44413666     3.85120336     2.27691840
 N                    -2.42215251     3.39507388     0.88602760
 H                    -3.15621271     3.15548958     0.24623703
 H                    -2.59129947     4.01424325     1.65591045
 C                     0.51112861    -0.79688885    -0.99572167
 O                     0.71800090    -0.02883321    -1.92796703
 N                     1.43406442    -1.01641722    -0.05994030
 H                     1.16976568    -1.61698575     0.71269844
 C                     2.77914169    -0.42865289    -0.06105597
 H                     3.35805832    -0.85739093     0.75788740
 H                     3.27571596    -0.69417669    -0.99560565
 C                     2.80419639     1.10002287     0.08109776
 O                     1.82946008     1.73386718     0.48751198
 N                     3.92712528     1.72383128    -0.24386343
 H                     4.71984250     1.20206254    -0.58010559
 H                     3.96702527     2.72778805    -0.16269825

 ==============================================================================
                                internuclear distances
 ------------------------------------------------------------------------------
       center one      |      center two      | atomic units |  angstroms
 ------------------------------------------------------------------------------
    2 C                |   1 H                |     2.05806  |     1.08908
    3 H                |   2 C                |     2.05813  |     1.08911
    4 H                |   2 C                |     2.05840  |     1.08926
    5 C                |   2 C                |     2.85312  |     1.50980
    6 O                |   5 C                |     2.31555  |     1.22534
    7 N                |   5 C                |     2.53127  |     1.33949
    8 H                |   7 N                |     1.90823  |     1.00979
    9 C                |   7 N                |     2.80755  |     1.48569
   10 H                |   9 C                |     2.06175  |     1.09103
   11 C                |   9 C                |     2.92406  |     1.54734
   12 H                |  11 C                |     2.06286  |     1.09162
   13 H                |  11 C                |     2.06306  |     1.09172
   14 C                |  11 C                |     2.91515  |     1.54263
   15 H                |  14 C                |     2.06142  |     1.09086
   16 H                |  14 C                |     2.06086  |     1.09056
   17 C                |  14 C                |     2.90627  |     1.53793
   18 H                |  17 C                |     2.06193  |     1.09113
   19 H                |  17 C                |     2.06245  |     1.09140
   20 N                |  17 C                |     2.79022  |     1.47652
   21 H                |  20 N                |     1.92046  |     1.01626
   22 C                |  20 N                |     2.49119  |     1.31828
   23 N                |  22 C                |     2.45402  |     1.29861
   24 H                |  23 N                |     1.92466  |     1.01849
   25 H                |  23 N                |     1.89149  |     1.00093
   26 N                |  22 C                |     2.46455  |     1.30419
   27 H                |  26 N                |     1.89499  |     1.00278
   28 H                |  26 N                |     1.89416  |     1.00235
   29 C                |   9 C                |     2.91428  |     1.54217
   30 O                |  29 C                |     2.31581  |     1.22547
   31 N                |  29 C                |     2.51815  |     1.33255
   32 H                |  31 N                |     1.91554  |     1.01366
   33 C                |  31 N                |     2.77391  |     1.46789
   34 H                |  33 C                |     2.06113  |     1.09070
   35 H                |  33 C                |     2.06186  |     1.09109
   36 C                |  33 C                |     2.90163  |     1.53548
   37 O                |  36 C                |     2.32754  |     1.23168
   38 N                |  36 C                |     2.50394  |     1.32503
   39 H                |  38 N                |     1.90263  |     1.00683
   40 H                |  38 N                |     1.90489  |     1.00802
 ------------------------------------------------------------------------------
                         number of included internuclear distances:         39
 ==============================================================================



 ==============================================================================
                                 internuclear angles
 ------------------------------------------------------------------------------
        center 1       |       center 2       |       center 3       |  degrees
 ------------------------------------------------------------------------------
    1 H                |   2 C                |   3 H                |   109.35
    1 H                |   2 C                |   4 H                |   109.84
    1 H                |   2 C                |   5 C                |   109.71
    3 H                |   2 C                |   4 H                |   109.25
    3 H                |   2 C                |   5 C                |   109.09
    4 H                |   2 C                |   5 C                |   109.59
    2 C                |   5 C                |   6 O                |   119.99
    2 C                |   5 C                |   7 N                |   116.68
    6 O                |   5 C                |   7 N                |   123.33
    5 C                |   7 N                |   8 H                |   115.33
    5 C                |   7 N                |   9 C                |   127.87
    8 H                |   7 N                |   9 C                |   116.80
    7 N                |   9 C                |  10 H                |   106.79
    7 N                |   9 C                |  11 C                |   108.96
    7 N                |   9 C                |  29 C                |   115.54
   10 H                |   9 C                |  11 C                |   107.31
   10 H                |   9 C                |  29 C                |   104.72
   11 C                |   9 C                |  29 C                |   112.95
    9 C                |  11 C                |  12 H                |   108.35
    9 C                |  11 C                |  13 H                |   109.31
    9 C                |  11 C                |  14 C                |   116.77
   12 H                |  11 C                |  13 H                |   106.51
   12 H                |  11 C                |  14 C                |   105.80
   13 H                |  11 C                |  14 C                |   109.58
   11 C                |  14 C                |  15 H                |   108.55
   11 C                |  14 C                |  16 H                |   107.39
   11 C                |  14 C                |  17 C                |   117.42
   15 H                |  14 C                |  16 H                |   107.12
   15 H                |  14 C                |  17 C                |   108.14
   16 H                |  14 C                |  17 C                |   107.78
   14 C                |  17 C                |  18 H                |   108.88
   14 C                |  17 C                |  19 H                |   109.04
   14 C                |  17 C                |  20 N                |   112.92
   18 H                |  17 C                |  19 H                |   106.57
   18 H                |  17 C                |  20 N                |   109.24
   19 H                |  17 C                |  20 N                |   110.00
   17 C                |  20 N                |  21 H                |   116.26
   17 C                |  20 N                |  22 C                |   128.30
   21 H                |  20 N                |  22 C                |   115.44
   20 N                |  22 C                |  23 N                |   119.29
   20 N                |  22 C                |  26 N                |   122.70
   23 N                |  22 C                |  26 N                |   118.01
   22 C                |  23 N                |  24 H                |   117.14
   22 C                |  23 N                |  25 H                |   122.04
   24 H                |  23 N                |  25 H                |   120.78
   22 C                |  26 N                |  27 H                |   118.51
   22 C                |  26 N                |  28 H                |   120.52
   27 H                |  26 N                |  28 H                |   120.94
    9 C                |  29 C                |  30 O                |   118.79
    9 C                |  29 C                |  31 N                |   119.83
   30 O                |  29 C                |  31 N                |   121.37
   29 C                |  31 N                |  32 H                |   116.89
   29 C                |  31 N                |  33 C                |   124.62
   32 H                |  31 N                |  33 C                |   118.47
   31 N                |  33 C                |  34 H                |   109.17
   31 N                |  33 C                |  35 H                |   108.68
   31 N                |  33 C                |  36 C                |   114.43
   34 H                |  33 C                |  35 H                |   107.81
   34 H                |  33 C                |  36 C                |   108.25
   35 H                |  33 C                |  36 C                |   108.31
   33 C                |  36 C                |  37 O                |   122.00
   33 C                |  36 C                |  38 N                |   117.38
   37 O                |  36 C                |  38 N                |   120.62
   36 C                |  38 N                |  39 H                |   120.34
   36 C                |  38 N                |  40 H                |   118.86
   39 H                |  38 N                |  40 H                |   120.79
 ------------------------------------------------------------------------------
                            number of included internuclear angles:         66
 ==============================================================================



  library name resolved from: environment
  library file name is: </opt/rit/el9/20230413/app/linux-rhel9-x86_64_v3/gcc-11.2.1/nwchem-7.2.0-oxtctbuhfuzyfaoziquq6bki22grib3g/share/nwchem/libraries/>
  


 Summary of "ao basis" -> "" (cartesian)
 ------------------------------------------------------------------------------
       Tag                 Description            Shells   Functions and Types
 ---------------- ------------------------------  ------  ---------------------
 *                        aug-cc-pvdz                 on all atoms 


                      Basis "ao basis" -> "ao basis" (cartesian)
                      -----
  H (Hydrogen)
  ------------
            Exponent  Coefficients 
       -------------- ---------------------------------------------------------
  1 S  1.30100000E+01  0.019685
  1 S  1.96200000E+00  0.137977
  1 S  4.44600000E-01  0.478148

  2 S  1.22000000E-01  1.000000

  3 S  2.97400000E-02  1.000000

  4 P  7.27000000E-01  1.000000

  5 P  1.41000000E-01  1.000000

  C (Carbon)
  ----------
            Exponent  Coefficients 
       -------------- ---------------------------------------------------------
  1 S  6.66500000E+03  0.000692
  1 S  1.00000000E+03  0.005329
  1 S  2.28000000E+02  0.027077
  1 S  6.47100000E+01  0.101718
  1 S  2.10600000E+01  0.274740
  1 S  7.49500000E+00  0.448564
  1 S  2.79700000E+00  0.285074
  1 S  5.21500000E-01  0.015204

  2 S  6.66500000E+03 -0.000146
  2 S  1.00000000E+03 -0.001154
  2 S  2.28000000E+02 -0.005725
  2 S  6.47100000E+01 -0.023312
  2 S  2.10600000E+01 -0.063955
  2 S  7.49500000E+00 -0.149981
  2 S  2.79700000E+00 -0.127262
  2 S  5.21500000E-01  0.544529

  3 S  1.59600000E-01  1.000000

  4 S  4.69000000E-02  1.000000

  5 P  9.43900000E+00  0.038109
  5 P  2.00200000E+00  0.209480
  5 P  5.45600000E-01  0.508557

  6 P  1.51700000E-01  1.000000

  7 P  4.04100000E-02  1.000000

  8 D  5.50000000E-01  1.000000

  9 D  1.51000000E-01  1.000000

  O (Oxygen)
  ----------
            Exponent  Coefficients 
       -------------- ---------------------------------------------------------
  1 S  1.17200000E+04  0.000710
  1 S  1.75900000E+03  0.005470
  1 S  4.00800000E+02  0.027837
  1 S  1.13700000E+02  0.104800
  1 S  3.70300000E+01  0.283062
  1 S  1.32700000E+01  0.448719
  1 S  5.02500000E+00  0.270952
  1 S  1.01300000E+00  0.015458

  2 S  1.17200000E+04 -0.000160
  2 S  1.75900000E+03 -0.001263
  2 S  4.00800000E+02 -0.006267
  2 S  1.13700000E+02 -0.025716
  2 S  3.70300000E+01 -0.070924
  2 S  1.32700000E+01 -0.165411
  2 S  5.02500000E+00 -0.116955
  2 S  1.01300000E+00  0.557368

  3 S  3.02300000E-01  1.000000

  4 S  7.89600000E-02  1.000000

  5 P  1.77000000E+01  0.043018
  5 P  3.85400000E+00  0.228913
  5 P  1.04600000E+00  0.508728

  6 P  2.75300000E-01  1.000000

  7 P  6.85600000E-02  1.000000

  8 D  1.18500000E+00  1.000000

  9 D  3.32000000E-01  1.000000

  N (Nitrogen)
  ------------
            Exponent  Coefficients 
       -------------- ---------------------------------------------------------
  1 S  9.04600000E+03  0.000700
  1 S  1.35700000E+03  0.005389
  1 S  3.09300000E+02  0.027406
  1 S  8.77300000E+01  0.103207
  1 S  2.85600000E+01  0.278723
  1 S  1.02100000E+01  0.448540
  1 S  3.83800000E+00  0.278238
  1 S  7.46600000E-01  0.015440

  2 S  9.04600000E+03 -0.000153
  2 S  1.35700000E+03 -0.001208
  2 S  3.09300000E+02 -0.005992
  2 S  8.77300000E+01 -0.024544
  2 S  2.85600000E+01 -0.067459
  2 S  1.02100000E+01 -0.158078
  2 S  3.83800000E+00 -0.121831
  2 S  7.46600000E-01  0.549003

  3 S  2.24800000E-01  1.000000

  4 S  6.12400000E-02  1.000000

  5 P  1.35500000E+01  0.039919
  5 P  2.91700000E+00  0.217169
  5 P  7.97300000E-01  0.510319

  6 P  2.18500000E-01  1.000000

  7 P  5.61100000E-02  1.000000

  8 D  8.17000000E-01  1.000000

  9 D  2.30000000E-01  1.000000



 Summary of "ao basis" -> "ao basis" (cartesian)
 ------------------------------------------------------------------------------
       Tag                 Description            Shells   Functions and Types
 ---------------- ------------------------------  ------  ---------------------
 H                        aug-cc-pvdz                5        9   3s2p
 C                        aug-cc-pvdz                9       25   4s3p2d
 O                        aug-cc-pvdz                9       25   4s3p2d
 N                        aug-cc-pvdz                9       25   4s3p2d


 ------------------------------------------------------------------------
 scf: no. of closed-shell electrons is not even!                   0
 ------------------------------------------------------------------------
 ------------------------------------------------------------------------
  current input line : 
    55: task scf energy
 ------------------------------------------------------------------------
 ------------------------------------------------------------------------
 There is an error in the input file
 ------------------------------------------------------------------------
 For more information see the NWChem manual at https://nwchemgit.github.io


 For further details see manual section:                                                                                                                                                                                                                                                                
0:scf: no. of closed-shell electrons is not even!:Received an Error in Communication
--------------------------------------------------------------------------
MPI_ABORT was invoked on rank 0 in communicator MPI COMMUNICATOR 3 DUP FROM 0
with errorcode -1.

NOTE: invoking MPI_ABORT causes Open MPI to kill all MPI processes.
You may or may not see output from other processes, depending on
exactly when Open MPI kills them.
--------------------------------------------------------------------------
slurmstepd: error: *** STEP 6606886.6 ON nova21-speedy-11 CANCELLED AT 2025-07-08T09:10:28 ***
srun: Job step aborted: Waiting up to 32 seconds for job step to finish.
srun: error: nova21-speedy-11: task 0: Exited with exit code 255
