export TMOUT=5400
export TMPDIR=/tmp
export PTMPDIR=/tmp/ptmp
 argument  1 = inputs/ARG_GLY_3.nw



============================== echo of input deck ==============================
start ARG_GLY_3
geometry
H          5.02400       12.35200       14.79700
C          5.58300       13.24500       14.52200
H          5.71700       13.87000       15.40400
H          5.04000       13.80400       13.76200
C          6.93900       12.84700       13.98900
O          7.96100       13.23700       14.54300
N          6.96200       12.07600       12.89700
H          6.07100       11.81600       12.50200
C          8.18800       11.56100       12.25200
H          8.85900       11.24000       13.05200
C          7.83100       10.31300       11.41100
H          7.23900        9.63800       12.03100
H          7.21000       10.60800       10.56300
C          9.07400        9.53700       10.92700
H          9.96900        9.98600       11.36200
H          9.01900        8.51100       11.29400
C          9.21000        9.49900        9.39300
H          8.54000        8.73200        8.99900
H          8.89800       10.45300        8.96500
N         10.60000        9.20900        8.97900
H         10.80800        8.26200        8.71100
C         11.60300       10.07400        8.98900
N         12.81900        9.69000        8.72200
H         13.55100       10.37500        8.71600
H         13.01600        8.73300        8.49600
N         11.42700       11.32800        9.27700
H         12.18300       11.94900        9.52100
H         10.49400       11.67300        9.47900
C          8.95500       12.65000       11.47400
O          9.12300       12.54600       10.26000
N          9.40800       13.69400       12.16700
H          9.18700       13.70600       13.15900
C         10.14500       14.83600       11.61100
H          9.65800       15.17000       10.69400
H         10.09400       15.65600       12.32800
C         11.62500       14.56400       11.29100
O         12.04200       13.44500       11.00000
N         12.45200       15.59900       11.32300
H         12.11400       16.51800       11.56000
H         13.42700       15.44100       11.12500
end

basis
 * library aug-cc-pvdz
end

echo

scf
 direct
end

task scf energy
================================================================================


                                         
                                         


             Northwest Computational Chemistry Package (NWChem) 7.2.0
             --------------------------------------------------------


                    Environmental Molecular Sciences Laboratory
                       Pacific Northwest National Laboratory
                                Richland, WA 99352

                              Copyright (c) 1994-2022
                       Pacific Northwest National Laboratory
                            Battelle Memorial Institute

             NWChem is an open-source computational chemistry package
                        distributed under the terms of the
                      Educational Community License (ECL) 2.0
             A copy of the license is included with this distribution
                              in the LICENSE.TXT file

                                  ACKNOWLEDGMENT
                                  --------------

            This software and its documentation were developed at the
            EMSL at Pacific Northwest National Laboratory, a multiprogram
            national laboratory, operated for the U.S. Department of Energy
            by Battelle under Contract Number DE-AC05-76RL01830. Support
            for this work was provided by the Department of Energy Office
            of Biological and Environmental Research, Office of Basic
            Energy Sciences, and the Office of Advanced Scientific Computing.


           Job information
           ---------------

    hostname        = nova21-swift-2
    program         = /opt/rit/el9/20230413/app/linux-rhel9-x86_64_v3/gcc-11.2.1/nwchem-7.2.0-oxtctbuhfuzyfaoziquq6bki22grib3g/bin/nwchem
    date            = Tue Jul  8 09:10:27 2025

    compiled        = Wed_May_17_23:46:39_2023
    source          = /tmp/root/spack-stage/spack-stage-nwchem-7.2.0-oxtctbuhfuzyfaoziquq6bki22grib3g/spack-src
    nwchem branch   = 7.2.0
    nwchem revision = d0d141fd
    ga revision     = 5.8.0
    use scalapack   = T
    input           = inputs/ARG_GLY_3.nw
    prefix          = ARG_GLY_3.
    data base       = ./ARG_GLY_3.db
    status          = startup
    nproc           =        1
    time left       =     -1s



           Memory information
           ------------------

    heap     =   26214396 doubles =    200.0 Mbytes
    stack    =   26214401 doubles =    200.0 Mbytes
    global   =   52428800 doubles =    400.0 Mbytes (distinct from heap & stack)
    total    =  104857597 doubles =    800.0 Mbytes
    verify   = yes
    hardfail = no 


           Directory information
           ---------------------

  0 permanent = .
  0 scratch   = .




                                NWChem Input Module
                                -------------------



 Scaling coordinates for geometry "geometry" by  1.889725989
 (inverse scale =  0.529177249)

 C1  symmetry detected

          ------
          auto-z
          ------
  no constraints, skipping    0.0000000000000000     
  no constraints, skipping    0.0000000000000000     


                             Geometry "geometry" -> ""
                             -------------------------

 Output coordinates in angstroms (scale by  1.889725989 to convert to a.u.)

  No.       Tag          Charge          X              Y              Z
 ---- ---------------- ---------- -------------- -------------- --------------
    1 H                    1.0000    -2.15326455     5.33439223     0.15242072
    2 C                    6.0000    -1.12047410     5.14364090    -0.13482971
    3 H                    1.0000    -0.47470046     5.88362327     0.33624087
    4 H                    1.0000    -1.01723425     5.21004014    -1.21643161
    5 C                    6.0000    -0.71355327     3.76585002     0.33136416
    6 O                    8.0000     0.22110904     3.62746791     1.11287344
    7 N                    7.0000    -1.40378503     2.72948729    -0.15542781
    8 H                    1.0000    -2.14728036     2.93944642    -0.80399381
    9 C                    6.0000    -1.17378114     1.31554828     0.20816631
   10 H                    1.0000    -1.00641259     1.28646876     1.28725117
   11 C                    6.0000    -2.45513968     0.50197747    -0.08925065
   12 H                    1.0000    -3.30545968     1.02666189     0.34909986
   13 H                    1.0000    -2.61861932     0.45713501    -1.16769098
   14 C                    6.0000    -2.41968201    -0.91888041     0.51190377
   15 H                    1.0000    -1.51606964    -1.03107633     1.11418921
   16 H                    1.0000    -3.27043155    -1.04314052     1.18359912
   17 C                    6.0000    -2.47185642    -2.03232755    -0.55139736
   18 H                    1.0000    -3.50671108    -2.16201812    -0.87494209
   19 H                    1.0000    -1.89201948    -1.74080999    -1.42858071
   20 N                    7.0000    -1.94933766    -3.31123727    -0.02323065
   21 H                    1.0000    -2.62677821    -3.99205944     0.27585543
   22 C                    6.0000    -0.66988531    -3.61015388     0.14405515
   23 N                    7.0000    -0.31376270    -4.71721963     0.73140777
   24 H                    1.0000     0.66328120    -4.92311841     0.82127387
   25 H                    1.0000    -1.00296749    -5.36720470     1.06042170
   26 N                    7.0000     0.27921088    -2.81655384    -0.25072505
   27 H                    1.0000     1.23322771    -2.89810180     0.06536798
   28 H                    1.0000     0.04717257    -1.94931087    -0.72439778
   29 C                    6.0000     0.10573517     0.73635388    -0.42969407
   30 O                    8.0000     0.03789215    -0.21251602    -1.20936018
   31 N                    7.0000     1.26439005     1.31088623    -0.10903000
   32 H                    1.0000     1.21244244     2.11143576     0.51504602
   33 C                    6.0000     2.58464336     0.91804342    -0.61802385
   34 H                    1.0000     2.52469494     0.75693664    -1.69508689
   35 H                    1.0000     3.27532785     1.74435041    -0.44696339
   36 C                    6.0000     3.17892888    -0.34964297     0.01961235
   37 O                    8.0000     2.47706125    -1.24713361     0.48072341
   38 N                    7.0000     4.49979112    -0.45452193     0.04200297
   39 H                    1.0000     5.07861736     0.27837831    -0.33587455
   40 H                    1.0000     4.90952566    -1.27291586     0.46288536

      Atomic Mass 
      ----------- 

      H                  1.007825
      C                 12.000000
      O                 15.994910
      N                 14.003070


 Effective nuclear repulsion energy (a.u.)    1571.3254346397

            Nuclear Dipole moment (a.u.) 
            ----------------------------
        X                 Y               Z
 ---------------- ---------------- ----------------
     0.0000000000     0.0000000000     0.0000000000



                                Z-matrix (autoz)
                                -------- 

 Units are Angstrom for bonds and degrees for angles

      Type          Name      I     J     K     L     M      Value
      ----------- --------  ----- ----- ----- ----- ----- ----------
    1 Stretch                  1     2                       1.08883
    2 Stretch                  2     3                       1.08927
    3 Stretch                  2     4                       1.08854
    4 Stretch                  2     5                       1.51037
    5 Stretch                  5     6                       1.22617
    6 Stretch                  5     7                       1.33695
    7 Stretch                  7     8                       1.00872
    8 Stretch                  7     9                       1.47795
    9 Stretch                  9    10                       1.09237
   10 Stretch                  9    11                       1.54668
   11 Stretch                  9    29                       1.54256
   12 Stretch                 11    12                       1.09110
   13 Stretch                 11    13                       1.09168
   14 Stretch                 11    14                       1.54320
   15 Stretch                 14    15                       1.09172
   16 Stretch                 14    16                       1.09105
   17 Stretch                 14    17                       1.54049
   18 Stretch                 17    18                       1.09198
   19 Stretch                 17    19                       1.09117
   20 Stretch                 17    20                       1.47905
   21 Stretch                 20    21                       1.00593
   22 Stretch                 20    22                       1.32451
   23 Stretch                 22    23                       1.30284
   24 Stretch                 22    26                       1.29863
   25 Stretch                 23    24                       1.00254
   26 Stretch                 23    25                       1.00286
   27 Stretch                 26    27                       1.00832
   28 Stretch                 26    28                       1.01505
   29 Stretch                 29    30                       1.22997
   30 Stretch                 29    31                       1.33244
   31 Stretch                 31    32                       1.01639
   32 Stretch                 31    33                       1.46849
   33 Stretch                 33    34                       1.09069
   34 Stretch                 33    35                       1.09045
   35 Stretch                 33    36                       1.53844
   36 Stretch                 36    37                       1.22912
   37 Stretch                 36    38                       1.32521
   38 Stretch                 38    39                       1.00746
   39 Stretch                 38    40                       1.00737
   40 Bend                     1     2     3               109.22227
   41 Bend                     1     2     4               109.96262
   42 Bend                     1     2     5               109.50758
   43 Bend                     2     5     6               120.33423
   44 Bend                     2     5     7               117.10647
   45 Bend                     3     2     4               109.39272
   46 Bend                     3     2     5               109.05624
   47 Bend                     4     2     5               109.68106
   48 Bend                     5     7     8               116.95495
   49 Bend                     5     7     9               124.86738
   50 Bend                     6     5     7               122.55555
   51 Bend                     7     9    10               106.99760
   52 Bend                     7     9    11               109.08647
   53 Bend                     7     9    29               112.74141
   54 Bend                     8     7     9               118.16510
   55 Bend                     9    11    12               108.38715
   56 Bend                     9    11    13               109.61077
   57 Bend                     9    11    14               112.97715
   58 Bend                     9    29    30               120.39962
   59 Bend                     9    29    31               117.37906
   60 Bend                    10     9    11               107.63086
   61 Bend                    10     9    29               105.74718
   62 Bend                    11     9    29               114.21516
   63 Bend                    11    14    15               109.18070
   64 Bend                    11    14    16               109.07270
   65 Bend                    11    14    17               113.31752
   66 Bend                    12    11    13               107.45328
   67 Bend                    12    11    14               107.70751
   68 Bend                    13    11    14               110.51454
   69 Bend                    14    17    18               108.81123
   70 Bend                    14    17    19               110.10731
   71 Bend                    14    17    20               111.50211
   72 Bend                    15    14    16               107.10084
   73 Bend                    15    14    17               109.54493
   74 Bend                    16    14    17               108.43391
   75 Bend                    17    20    21               116.96732
   76 Bend                    17    20    22               125.55639
   77 Bend                    18    17    19               107.28558
   78 Bend                    18    17    20               109.74944
   79 Bend                    19    17    20               109.28997
   80 Bend                    20    22    23               120.84717
   81 Bend                    20    22    26               121.98328
   82 Bend                    21    20    22               117.40268
   83 Bend                    22    23    24               118.77150
   84 Bend                    22    23    25               120.71633
   85 Bend                    22    26    27               123.14518
   86 Bend                    22    26    28               119.79595
   87 Bend                    23    22    26               117.16496
   88 Bend                    24    23    25               120.48024
   89 Bend                    27    26    28               115.57383
   90 Bend                    29    31    32               116.29195
   91 Bend                    29    31    33               125.66394
   92 Bend                    30    29    31               122.21907
   93 Bend                    31    33    34               109.41314
   94 Bend                    31    33    35               108.20195
   95 Bend                    31    33    36               115.09196
   96 Bend                    32    31    33               118.00044
   97 Bend                    33    36    37               122.45180
   98 Bend                    33    36    38               117.20924
   99 Bend                    34    33    35               107.55693
  100 Bend                    34    33    36               107.98740
  101 Bend                    35    33    36               108.34347
  102 Bend                    36    38    39               120.58031
  103 Bend                    36    38    40               118.47384
  104 Bend                    37    36    38               120.33359
  105 Bend                    39    38    40               120.93247
  106 Torsion                  1     2     5     6        -119.93730
  107 Torsion                  1     2     5     7          60.74895
  108 Torsion                  2     5     7     8           0.22853
  109 Torsion                  2     5     7     9        -178.45357
  110 Torsion                  3     2     5     6          -0.47125
  111 Torsion                  3     2     5     7        -179.78501
  112 Torsion                  4     2     5     6         119.30665
  113 Torsion                  4     2     5     7         -60.00710
  114 Torsion                  5     7     9    10          41.76333
  115 Torsion                  5     7     9    11         157.92558
  116 Torsion                  5     7     9    29         -74.07556
  117 Torsion                  6     5     7     8        -179.06876
  118 Torsion                  6     5     7     9           2.24914
  119 Torsion                  7     9    11    12         -49.22786
  120 Torsion                  7     9    11    13          67.77028
  121 Torsion                  7     9    11    14        -168.50831
  122 Torsion                  7     9    29    30        -118.36377
  123 Torsion                  7     9    29    31          61.10215
  124 Torsion                  8     7     9    10        -136.90416
  125 Torsion                  8     7     9    11         -20.74192
  126 Torsion                  8     7     9    29         107.25695
  127 Torsion                  9    11    14    15           5.18771
  128 Torsion                  9    11    14    16         121.91168
  129 Torsion                  9    11    14    17        -117.20029
  130 Torsion                  9    29    31    32          -1.78905
  131 Torsion                  9    29    31    33        -179.32619
  132 Torsion                 10     9    11    12          66.52890
  133 Torsion                 10     9    11    13        -176.47296
  134 Torsion                 10     9    11    14         -52.75154
  135 Torsion                 10     9    29    30         125.05113
  136 Torsion                 10     9    29    31         -55.48294
  137 Torsion                 11     9    29    30           6.89540
  138 Torsion                 11     9    29    31        -173.63867
  139 Torsion                 11    14    17    18         -79.69659
  140 Torsion                 11    14    17    19          37.62495
  141 Torsion                 11    14    17    20         159.11353
  142 Torsion                 12    11     9    29        -176.39494
  143 Torsion                 12    11    14    15        -114.48453
  144 Torsion                 12    11    14    16           2.23944
  145 Torsion                 12    11    14    17         123.12747
  146 Torsion                 13    11     9    29         -59.39681
  147 Torsion                 13    11    14    15         128.40991
  148 Torsion                 13    11    14    16        -114.86612
  149 Torsion                 13    11    14    17           6.02191
  150 Torsion                 14    11     9    29          64.32461
  151 Torsion                 14    17    20    21          99.75892
  152 Torsion                 14    17    20    22         -77.02758
  153 Torsion                 15    14    17    18         158.11799
  154 Torsion                 15    14    17    19         -84.56048
  155 Torsion                 15    14    17    20          36.92810
  156 Torsion                 16    14    17    18          41.55143
  157 Torsion                 16    14    17    19         158.87296
  158 Torsion                 16    14    17    20         -79.63846
  159 Torsion                 17    20    22    23         173.62189
  160 Torsion                 17    20    22    26          -5.57722
  161 Torsion                 18    17    20    21         -20.88293
  162 Torsion                 18    17    20    22         162.33056
  163 Torsion                 19    17    20    21        -138.27915
  164 Torsion                 19    17    20    22          44.93434
  165 Torsion                 20    22    23    24         178.49706
  166 Torsion                 20    22    23    25           0.54258
  167 Torsion                 20    22    26    27         163.85926
  168 Torsion                 20    22    26    28          -1.61299
  169 Torsion                 21    20    22    23          -3.15204
  170 Torsion                 21    20    22    26         177.64886
  171 Torsion                 23    22    26    27         -15.36789
  172 Torsion                 23    22    26    28         179.15986
  173 Torsion                 24    23    22    26          -2.26648
  174 Torsion                 25    23    22    26         179.77904
  175 Torsion                 29    31    33    34          44.88398
  176 Torsion                 29    31    33    35         161.79237
  177 Torsion                 29    31    33    36         -76.88965
  178 Torsion                 30    29    31    32         177.66645
  179 Torsion                 30    29    31    33           0.12932
  180 Torsion                 31    33    36    37          27.85862
  181 Torsion                 31    33    36    38        -152.98242
  182 Torsion                 32    31    33    34        -132.61518
  183 Torsion                 32    31    33    35         -15.70678
  184 Torsion                 32    31    33    36         105.61119
  185 Torsion                 33    36    38    39           0.75116
  186 Torsion                 33    36    38    40         179.43279
  187 Torsion                 34    33    36    37         -94.68265
  188 Torsion                 34    33    36    38          84.47631
  189 Torsion                 35    33    36    37         149.09968
  190 Torsion                 35    33    36    38         -31.74136
  191 Torsion                 37    36    38    39         179.92888
  192 Torsion                 37    36    38    40          -1.38948


            XYZ format geometry
            -------------------
    40
 geometry
 H                    -2.15326455     5.33439223     0.15242072
 C                    -1.12047410     5.14364090    -0.13482971
 H                    -0.47470046     5.88362327     0.33624087
 H                    -1.01723425     5.21004014    -1.21643161
 C                    -0.71355327     3.76585002     0.33136416
 O                     0.22110904     3.62746791     1.11287344
 N                    -1.40378503     2.72948729    -0.15542781
 H                    -2.14728036     2.93944642    -0.80399381
 C                    -1.17378114     1.31554828     0.20816631
 H                    -1.00641259     1.28646876     1.28725117
 C                    -2.45513968     0.50197747    -0.08925065
 H                    -3.30545968     1.02666189     0.34909986
 H                    -2.61861932     0.45713501    -1.16769098
 C                    -2.41968201    -0.91888041     0.51190377
 H                    -1.51606964    -1.03107633     1.11418921
 H                    -3.27043155    -1.04314052     1.18359912
 C                    -2.47185642    -2.03232755    -0.55139736
 H                    -3.50671108    -2.16201812    -0.87494209
 H                    -1.89201948    -1.74080999    -1.42858071
 N                    -1.94933766    -3.31123727    -0.02323065
 H                    -2.62677821    -3.99205944     0.27585543
 C                    -0.66988531    -3.61015388     0.14405515
 N                    -0.31376270    -4.71721963     0.73140777
 H                     0.66328120    -4.92311841     0.82127387
 H                    -1.00296749    -5.36720470     1.06042170
 N                     0.27921088    -2.81655384    -0.25072505
 H                     1.23322771    -2.89810180     0.06536798
 H                     0.04717257    -1.94931087    -0.72439778
 C                     0.10573517     0.73635388    -0.42969407
 O                     0.03789215    -0.21251602    -1.20936018
 N                     1.26439005     1.31088623    -0.10903000
 H                     1.21244244     2.11143576     0.51504602
 C                     2.58464336     0.91804342    -0.61802385
 H                     2.52469494     0.75693664    -1.69508689
 H                     3.27532785     1.74435041    -0.44696339
 C                     3.17892888    -0.34964297     0.01961235
 O                     2.47706125    -1.24713361     0.48072341
 N                     4.49979112    -0.45452193     0.04200297
 H                     5.07861736     0.27837831    -0.33587455
 H                     4.90952566    -1.27291586     0.46288536

 ==============================================================================
                                internuclear distances
 ------------------------------------------------------------------------------
       center one      |      center two      | atomic units |  angstroms
 ------------------------------------------------------------------------------
    2 C                |   1 H                |     2.05759  |     1.08883
    3 H                |   2 C                |     2.05842  |     1.08927
    4 H                |   2 C                |     2.05705  |     1.08854
    5 C                |   2 C                |     2.85419  |     1.51037
    6 O                |   5 C                |     2.31713  |     1.22617
    7 N                |   5 C                |     2.52647  |     1.33695
    8 H                |   7 N                |     1.90619  |     1.00872
    9 C                |   7 N                |     2.79291  |     1.47795
   10 H                |   9 C                |     2.06429  |     1.09237
   11 C                |   9 C                |     2.92281  |     1.54668
   12 H                |  11 C                |     2.06187  |     1.09110
   13 H                |  11 C                |     2.06298  |     1.09168
   14 C                |  11 C                |     2.91623  |     1.54320
   15 H                |  14 C                |     2.06305  |     1.09172
   16 H                |  14 C                |     2.06179  |     1.09105
   17 C                |  14 C                |     2.91110  |     1.54049
   18 H                |  17 C                |     2.06355  |     1.09198
   19 H                |  17 C                |     2.06201  |     1.09117
   20 N                |  17 C                |     2.79500  |     1.47905
   21 H                |  20 N                |     1.90093  |     1.00593
   22 C                |  20 N                |     2.50297  |     1.32451
   23 N                |  22 C                |     2.46202  |     1.30284
   24 H                |  23 N                |     1.89452  |     1.00254
   25 H                |  23 N                |     1.89514  |     1.00286
   26 N                |  22 C                |     2.45405  |     1.29863
   27 H                |  26 N                |     1.90545  |     1.00832
   28 H                |  26 N                |     1.91816  |     1.01505
   29 C                |   9 C                |     2.91502  |     1.54256
   30 O                |  29 C                |     2.32431  |     1.22997
   31 N                |  29 C                |     2.51794  |     1.33244
   32 H                |  31 N                |     1.92070  |     1.01639
   33 C                |  31 N                |     2.77505  |     1.46849
   34 H                |  33 C                |     2.06111  |     1.09069
   35 H                |  33 C                |     2.06066  |     1.09045
   36 C                |  33 C                |     2.90722  |     1.53844
   37 O                |  36 C                |     2.32270  |     1.22912
   38 N                |  36 C                |     2.50428  |     1.32521
   39 H                |  38 N                |     1.90382  |     1.00746
   40 H                |  38 N                |     1.90365  |     1.00737
 ------------------------------------------------------------------------------
                         number of included internuclear distances:         39
 ==============================================================================



 ==============================================================================
                                 internuclear angles
 ------------------------------------------------------------------------------
        center 1       |       center 2       |       center 3       |  degrees
 ------------------------------------------------------------------------------
    1 H                |   2 C                |   3 H                |   109.22
    1 H                |   2 C                |   4 H                |   109.96
    1 H                |   2 C                |   5 C                |   109.51
    3 H                |   2 C                |   4 H                |   109.39
    3 H                |   2 C                |   5 C                |   109.06
    4 H                |   2 C                |   5 C                |   109.68
    2 C                |   5 C                |   6 O                |   120.33
    2 C                |   5 C                |   7 N                |   117.11
    6 O                |   5 C                |   7 N                |   122.56
    5 C                |   7 N                |   8 H                |   116.95
    5 C                |   7 N                |   9 C                |   124.87
    8 H                |   7 N                |   9 C                |   118.17
    7 N                |   9 C                |  10 H                |   107.00
    7 N                |   9 C                |  11 C                |   109.09
    7 N                |   9 C                |  29 C                |   112.74
   10 H                |   9 C                |  11 C                |   107.63
   10 H                |   9 C                |  29 C                |   105.75
   11 C                |   9 C                |  29 C                |   114.22
    9 C                |  11 C                |  12 H                |   108.39
    9 C                |  11 C                |  13 H                |   109.61
    9 C                |  11 C                |  14 C                |   112.98
   12 H                |  11 C                |  13 H                |   107.45
   12 H                |  11 C                |  14 C                |   107.71
   13 H                |  11 C                |  14 C                |   110.51
   11 C                |  14 C                |  15 H                |   109.18
   11 C                |  14 C                |  16 H                |   109.07
   11 C                |  14 C                |  17 C                |   113.32
   15 H                |  14 C                |  16 H                |   107.10
   15 H                |  14 C                |  17 C                |   109.54
   16 H                |  14 C                |  17 C                |   108.43
   14 C                |  17 C                |  18 H                |   108.81
   14 C                |  17 C                |  19 H                |   110.11
   14 C                |  17 C                |  20 N                |   111.50
   18 H                |  17 C                |  19 H                |   107.29
   18 H                |  17 C                |  20 N                |   109.75
   19 H                |  17 C                |  20 N                |   109.29
   17 C                |  20 N                |  21 H                |   116.97
   17 C                |  20 N                |  22 C                |   125.56
   21 H                |  20 N                |  22 C                |   117.40
   20 N                |  22 C                |  23 N                |   120.85
   20 N                |  22 C                |  26 N                |   121.98
   23 N                |  22 C                |  26 N                |   117.16
   22 C                |  23 N                |  24 H                |   118.77
   22 C                |  23 N                |  25 H                |   120.72
   24 H                |  23 N                |  25 H                |   120.48
   22 C                |  26 N                |  27 H                |   123.15
   22 C                |  26 N                |  28 H                |   119.80
   27 H                |  26 N                |  28 H                |   115.57
    9 C                |  29 C                |  30 O                |   120.40
    9 C                |  29 C                |  31 N                |   117.38
   30 O                |  29 C                |  31 N                |   122.22
   29 C                |  31 N                |  32 H                |   116.29
   29 C                |  31 N                |  33 C                |   125.66
   32 H                |  31 N                |  33 C                |   118.00
   31 N                |  33 C                |  34 H                |   109.41
   31 N                |  33 C                |  35 H                |   108.20
   31 N                |  33 C                |  36 C                |   115.09
   34 H                |  33 C                |  35 H                |   107.56
   34 H                |  33 C                |  36 C                |   107.99
   35 H                |  33 C                |  36 C                |   108.34
   33 C                |  36 C                |  37 O                |   122.45
   33 C                |  36 C                |  38 N                |   117.21
   37 O                |  36 C                |  38 N                |   120.33
   36 C                |  38 N                |  39 H                |   120.58
   36 C                |  38 N                |  40 H                |   118.47
   39 H                |  38 N                |  40 H                |   120.93
 ------------------------------------------------------------------------------
                            number of included internuclear angles:         66
 ==============================================================================



  library name resolved from: environment
  library file name is: </opt/rit/el9/20230413/app/linux-rhel9-x86_64_v3/gcc-11.2.1/nwchem-7.2.0-oxtctbuhfuzyfaoziquq6bki22grib3g/share/nwchem/libraries/>
  


 Summary of "ao basis" -> "" (cartesian)
 ------------------------------------------------------------------------------
       Tag                 Description            Shells   Functions and Types
 ---------------- ------------------------------  ------  ---------------------
 *                        aug-cc-pvdz                 on all atoms 


                      Basis "ao basis" -> "ao basis" (cartesian)
                      -----
  H (Hydrogen)
  ------------
            Exponent  Coefficients 
       -------------- ---------------------------------------------------------
  1 S  1.30100000E+01  0.019685
  1 S  1.96200000E+00  0.137977
  1 S  4.44600000E-01  0.478148

  2 S  1.22000000E-01  1.000000

  3 S  2.97400000E-02  1.000000

  4 P  7.27000000E-01  1.000000

  5 P  1.41000000E-01  1.000000

  C (Carbon)
  ----------
            Exponent  Coefficients 
       -------------- ---------------------------------------------------------
  1 S  6.66500000E+03  0.000692
  1 S  1.00000000E+03  0.005329
  1 S  2.28000000E+02  0.027077
  1 S  6.47100000E+01  0.101718
  1 S  2.10600000E+01  0.274740
  1 S  7.49500000E+00  0.448564
  1 S  2.79700000E+00  0.285074
  1 S  5.21500000E-01  0.015204

  2 S  6.66500000E+03 -0.000146
  2 S  1.00000000E+03 -0.001154
  2 S  2.28000000E+02 -0.005725
  2 S  6.47100000E+01 -0.023312
  2 S  2.10600000E+01 -0.063955
  2 S  7.49500000E+00 -0.149981
  2 S  2.79700000E+00 -0.127262
  2 S  5.21500000E-01  0.544529

  3 S  1.59600000E-01  1.000000

  4 S  4.69000000E-02  1.000000

  5 P  9.43900000E+00  0.038109
  5 P  2.00200000E+00  0.209480
  5 P  5.45600000E-01  0.508557

  6 P  1.51700000E-01  1.000000

  7 P  4.04100000E-02  1.000000

  8 D  5.50000000E-01  1.000000

  9 D  1.51000000E-01  1.000000

  O (Oxygen)
  ----------
            Exponent  Coefficients 
       -------------- ---------------------------------------------------------
  1 S  1.17200000E+04  0.000710
  1 S  1.75900000E+03  0.005470
  1 S  4.00800000E+02  0.027837
  1 S  1.13700000E+02  0.104800
  1 S  3.70300000E+01  0.283062
  1 S  1.32700000E+01  0.448719
  1 S  5.02500000E+00  0.270952
  1 S  1.01300000E+00  0.015458

  2 S  1.17200000E+04 -0.000160
  2 S  1.75900000E+03 -0.001263
  2 S  4.00800000E+02 -0.006267
  2 S  1.13700000E+02 -0.025716
  2 S  3.70300000E+01 -0.070924
  2 S  1.32700000E+01 -0.165411
  2 S  5.02500000E+00 -0.116955
  2 S  1.01300000E+00  0.557368

  3 S  3.02300000E-01  1.000000

  4 S  7.89600000E-02  1.000000

  5 P  1.77000000E+01  0.043018
  5 P  3.85400000E+00  0.228913
  5 P  1.04600000E+00  0.508728

  6 P  2.75300000E-01  1.000000

  7 P  6.85600000E-02  1.000000

  8 D  1.18500000E+00  1.000000

  9 D  3.32000000E-01  1.000000

  N (Nitrogen)
  ------------
            Exponent  Coefficients 
       -------------- ---------------------------------------------------------
  1 S  9.04600000E+03  0.000700
  1 S  1.35700000E+03  0.005389
  1 S  3.09300000E+02  0.027406
  1 S  8.77300000E+01  0.103207
  1 S  2.85600000E+01  0.278723
  1 S  1.02100000E+01  0.448540
  1 S  3.83800000E+00  0.278238
  1 S  7.46600000E-01  0.015440

  2 S  9.04600000E+03 -0.000153
  2 S  1.35700000E+03 -0.001208
  2 S  3.09300000E+02 -0.005992
  2 S  8.77300000E+01 -0.024544
  2 S  2.85600000E+01 -0.067459
  2 S  1.02100000E+01 -0.158078
  2 S  3.83800000E+00 -0.121831
  2 S  7.46600000E-01  0.549003

  3 S  2.24800000E-01  1.000000

  4 S  6.12400000E-02  1.000000

  5 P  1.35500000E+01  0.039919
  5 P  2.91700000E+00  0.217169
  5 P  7.97300000E-01  0.510319

  6 P  2.18500000E-01  1.000000

  7 P  5.61100000E-02  1.000000

  8 D  8.17000000E-01  1.000000

  9 D  2.30000000E-01  1.000000



 Summary of "ao basis" -> "ao basis" (cartesian)
 ------------------------------------------------------------------------------
       Tag                 Description            Shells   Functions and Types
 ---------------- ------------------------------  ------  ---------------------
 H                        aug-cc-pvdz                5        9   3s2p
 C                        aug-cc-pvdz                9       25   4s3p2d
 O                        aug-cc-pvdz                9       25   4s3p2d
 N                        aug-cc-pvdz                9       25   4s3p2d


 ------------------------------------------------------------------------
 scf: no. of closed-shell electrons is not even!                   0
 ------------------------------------------------------------------------
 ------------------------------------------------------------------------
  current input line : 
    55: task scf energy
 ------------------------------------------------------------------------
 ------------------------------------------------------------------------
 There is an error in the input file
 ------------------------------------------------------------------------
 For more information see the NWChem manual at https://nwchemgit.github.io


 For further details see manual section:                                                                                                                                                                                                                                                                
0:scf: no. of closed-shell electrons is not even!:Received an Error in Communication
--------------------------------------------------------------------------
MPI_ABORT was invoked on rank 0 in communicator MPI COMMUNICATOR 3 DUP FROM 0
with errorcode -1.

NOTE: invoking MPI_ABORT causes Open MPI to kill all MPI processes.
You may or may not see output from other processes, depending on
exactly when Open MPI kills them.
--------------------------------------------------------------------------
slurmstepd: error: *** STEP 6606886.9 ON nova21-swift-2 CANCELLED AT 2025-07-08T09:10:28 ***
srun: Job step aborted: Waiting up to 32 seconds for job step to finish.
srun: error: nova21-swift-2: task 0: Exited with exit code 255
