export TMOUT=5400
export TMPDIR=/tmp
export PTMPDIR=/tmp/ptmp
 argument  1 = inputs/ARG_GLY_4.nw



============================== echo of input deck ==============================
start ARG_GLY_4
geometry
H         16.47800       -7.19500        3.69800
C         15.75300       -7.55800        2.97000
H         15.91000       -8.62300        2.80700
H         15.87400       -7.01500        2.03600
C         14.36100       -7.33100        3.51300
O         14.20200       -6.80800        4.60700
N         13.34000       -7.71900        2.74300
H         13.55900       -8.17000        1.86500
C         11.92200       -7.64500        3.13900
H         11.86600       -7.92400        4.19300
C         11.38000       -6.19900        3.02600
H         10.29100       -6.22400        3.07500
H         11.71500       -5.66000        3.91400
C         11.80900       -5.35100        1.80900
H         11.32700       -4.37700        1.89700
H         12.88500       -5.17700        1.86200
C         11.48400       -5.92700        0.42200
H         11.79200       -5.21100       -0.34100
H         12.07700       -6.82900        0.26500
N         10.05200       -6.25200        0.26500
H          9.78900       -7.21900        0.42500
C          9.06800       -5.44100       -0.07200
N          7.85300       -5.90000       -0.11400
H          7.07800       -5.32000       -0.36800
H          7.71200       -6.87100        0.15500
N          9.25800       -4.18400       -0.36000
H         10.19300       -3.82200       -0.33800
H          8.48700       -3.59700       -0.61800
C         11.06300       -8.65800        2.38000
O         11.35800       -8.98300        1.23400
N          9.98200       -9.13100        3.00200
H          9.79500       -8.80900        3.93900
C          9.08200      -10.13800        2.42100
H          9.66600      -11.02700        2.17800
H          8.33300      -10.42400        3.16000
C          8.35300       -9.68000        1.14900
O          8.24600       -8.48800        0.85400
N          7.82700      -10.61800        0.37500
H          7.92300      -11.59200        0.61700
H          7.34800      -10.34300       -0.46700
end

basis
 * library aug-cc-pvdz
end

echo

scf
 direct
end

task scf energy
================================================================================


                                         
                                         


             Northwest Computational Chemistry Package (NWChem) 7.2.0
             --------------------------------------------------------


                    Environmental Molecular Sciences Laboratory
                       Pacific Northwest National Laboratory
                                Richland, WA 99352

                              Copyright (c) 1994-2022
                       Pacific Northwest National Laboratory
                            Battelle Memorial Institute

             NWChem is an open-source computational chemistry package
                        distributed under the terms of the
                      Educational Community License (ECL) 2.0
             A copy of the license is included with this distribution
                              in the LICENSE.TXT file

                                  ACKNOWLEDGMENT
                                  --------------

            This software and its documentation were developed at the
            EMSL at Pacific Northwest National Laboratory, a multiprogram
            national laboratory, operated for the U.S. Department of Energy
            by Battelle under Contract Number DE-AC05-76RL01830. Support
            for this work was provided by the Department of Energy Office
            of Biological and Environmental Research, Office of Basic
            Energy Sciences, and the Office of Advanced Scientific Computing.


           Job information
           ---------------

    hostname        = nova21-swift-3
    program         = /opt/rit/el9/20230413/app/linux-rhel9-x86_64_v3/gcc-11.2.1/nwchem-7.2.0-oxtctbuhfuzyfaoziquq6bki22grib3g/bin/nwchem
    date            = Tue Jul  8 09:10:27 2025

    compiled        = Wed_May_17_23:46:39_2023
    source          = /tmp/root/spack-stage/spack-stage-nwchem-7.2.0-oxtctbuhfuzyfaoziquq6bki22grib3g/spack-src
    nwchem branch   = 7.2.0
    nwchem revision = d0d141fd
    ga revision     = 5.8.0
    use scalapack   = T
    input           = inputs/ARG_GLY_4.nw
    prefix          = ARG_GLY_4.
    data base       = ./ARG_GLY_4.db
    status          = startup
    nproc           =        1
    time left       =     -1s



           Memory information
           ------------------

    heap     =   26214394 doubles =    200.0 Mbytes
    stack    =   26214399 doubles =    200.0 Mbytes
    global   =   52428800 doubles =    400.0 Mbytes (distinct from heap & stack)
    total    =  104857593 doubles =    800.0 Mbytes
    verify   = yes
    hardfail = no 


           Directory information
           ---------------------

  0 permanent = .
  0 scratch   = .




                                NWChem Input Module
                                -------------------



 Scaling coordinates for geometry "geometry" by  1.889725989
 (inverse scale =  0.529177249)

 C1  symmetry detected

          ------
          auto-z
          ------
  no constraints, skipping    0.0000000000000000     
  no constraints, skipping    0.0000000000000000     


                             Geometry "geometry" -> ""
                             -------------------------

 Output coordinates in angstroms (scale by  1.889725989 to convert to a.u.)

  No.       Tag          Charge          X              Y              Z
 ---- ---------------- ---------- -------------- -------------- --------------
    1 H                    1.0000    -0.07756602    -5.90790228    -0.87906858
    2 C                    6.0000    -0.22323447    -4.89854104    -1.26292869
    3 H                    1.0000    -1.16527513    -4.85358948    -1.80697073
    4 H                    1.0000     0.60164731    -4.63852360    -1.92156894
    5 C                    6.0000    -0.26694065    -3.93561285    -0.09892651
    6 O                    8.0000    -0.14101649    -4.34468819     1.04669406
    7 N                    7.0000    -0.43944934    -2.64255507    -0.38897362
    8 H                    1.0000    -0.56474146    -2.39193568    -1.36043531
    9 C                    6.0000    -0.58081861    -1.57417176     0.61680360
   10 H                    1.0000    -1.19226796    -1.97341282     1.42836338
   11 C                    6.0000     0.78879263    -1.19254770     1.22997333
   12 H                    1.0000     0.68657737    -0.24796978     1.76501689
   13 H                    1.0000     1.02564887    -1.94730688     1.98198909
   14 C                    6.0000     2.01169130    -1.10850801     0.29098974
   15 H                    1.0000     2.87378301    -0.82230872     0.89400868
   16 H                    1.0000     2.22028923    -2.10320338    -0.10641310
   17 C                    6.0000     1.90389498    -0.13263565    -0.89105218
   18 H                    1.0000     2.84669841    -0.13356665    -1.43951350
   19 H                    1.0000     1.13868046    -0.49328673    -1.57973174
   20 N                    7.0000     1.56647354     1.24000271    -0.46337392
   21 H                    1.0000     0.58696325     1.50031099    -0.51492178
   22 C                    6.0000     2.38513317     2.18012818    -0.03266925
   23 N                    7.0000     1.89615210     3.32236944     0.34792557
   24 H                    1.0000     2.48178598     4.06371002     0.67805905
   25 H                    1.0000     0.88419318     3.42567461     0.32921228
   26 N                    7.0000     3.67586467     2.01248525     0.03804888
   27 H                    1.0000     4.06381659     1.13724656    -0.26062076
   28 H                    1.0000     4.26964003     2.75137340     0.36523248
   29 C                    6.0000    -1.33707381    -0.36492753     0.06368747
   30 O                    8.0000    -1.25141550    -0.07316784    -1.12522167
   31 N                    7.0000    -2.04896137     0.35919833     0.92857581
   32 H                    1.0000    -2.06281134     0.06684260     1.89343762
   33 C                    6.0000    -2.86019458     1.52345567     0.54384792
   34 H                    1.0000    -3.58550786     1.20840383    -0.20787608
   35 H                    1.0000    -3.41494184     1.88127531     1.41168349
   36 C                    6.0000    -2.05366834     2.69802779    -0.02981117
   37 O                    8.0000    -0.83901937     2.80323989     0.15156218
   38 N                    7.0000    -2.71513734     3.61147912    -0.72526889
   39 H                    1.0000    -3.70746310     3.51749088    -0.87663531
   40 H                    1.0000    -2.20762361     4.38874581    -1.11554610

      Atomic Mass 
      ----------- 

      H                  1.007825
      C                 12.000000
      O                 15.994910
      N                 14.003070


 Effective nuclear repulsion energy (a.u.)    1592.9327115682

            Nuclear Dipole moment (a.u.) 
            ----------------------------
        X                 Y               Z
 ---------------- ---------------- ----------------
     0.0000000000    -0.0000000000     0.0000000000



                                Z-matrix (autoz)
                                -------- 

 Units are Angstrom for bonds and degrees for angles

      Type          Name      I     J     K     L     M      Value
      ----------- --------  ----- ----- ----- ----- ----- ----------
    1 Stretch                  1     2                       1.08967
    2 Stretch                  2     3                       1.08878
    3 Stretch                  2     4                       1.08713
    4 Stretch                  2     5                       1.51130
    5 Stretch                  5     6                       1.22297
    6 Stretch                  5     7                       1.33637
    7 Stretch                  7     8                       1.01106
    8 Stretch                  7     9                       1.47412
    9 Stretch                  9    10                       1.09174
   10 Stretch                  9    11                       1.54837
   11 Stretch                  9    29                       1.52975
   12 Stretch                 11    12                       1.09039
   13 Stretch                 11    13                       1.09146
   14 Stretch                 11    14                       1.54410
   15 Stretch                 14    15                       1.09030
   16 Stretch                 14    16                       1.09127
   17 Stretch                 14    17                       1.53661
   18 Stretch                 17    18                       1.09073
   19 Stretch                 17    19                       1.09083
   20 Stretch                 17    20                       1.47679
   21 Stretch                 20    21                       1.01482
   22 Stretch                 20    22                       1.31892
   23 Stretch                 22    23                       1.29949
   24 Stretch                 22    26                       1.30349
   25 Stretch                 23    24                       1.00077
   26 Stretch                 23    25                       1.01739
   27 Stretch                 26    27                       1.00287
   28 Stretch                 26    28                       1.00278
   29 Stretch                 29    30                       1.22718
   30 Stretch                 29    31                       1.33386
   31 Stretch                 31    32                       1.00828
   32 Stretch                 31    33                       1.47024
   33 Stretch                 33    34                       1.09107
   34 Stretch                 33    35                       1.09038
   35 Stretch                 33    36                       1.53597
   36 Stretch                 36    37                       1.23261
   37 Stretch                 36    38                       1.32499
   38 Stretch                 38    39                       1.00819
   39 Stretch                 38    40                       1.00699
   40 Bend                     1     2     3               109.26461
   41 Bend                     1     2     4               109.48396
   42 Bend                     1     2     5               108.82870
   43 Bend                     2     5     6               120.35694
   44 Bend                     2     5     7               116.94074
   45 Bend                     3     2     4               110.11472
   46 Bend                     3     2     5               109.48285
   47 Bend                     4     2     5               109.64415
   48 Bend                     5     7     8               117.67014
   49 Bend                     5     7     9               124.44166
   50 Bend                     6     5     7               122.70130
   51 Bend                     7     9    10               107.20927
   52 Bend                     7     9    11               111.34581
   53 Bend                     7     9    29               111.93941
   54 Bend                     8     7     9               117.64762
   55 Bend                     9    11    12               108.96003
   56 Bend                     9    11    13               107.11971
   57 Bend                     9    11    14               118.23866
   58 Bend                     9    29    30               120.24690
   59 Bend                     9    29    31               117.29277
   60 Bend                    10     9    11               106.92751
   61 Bend                    10     9    29               106.31850
   62 Bend                    11     9    29               112.68399
   63 Bend                    11    14    15               107.70828
   64 Bend                    11    14    16               108.85859
   65 Bend                    11    14    17               116.53843
   66 Bend                    12    11    13               106.33770
   67 Bend                    12    11    14               108.99519
   68 Bend                    13    11    14               106.54437
   69 Bend                    14    17    18               109.00379
   70 Bend                    14    17    19               108.95940
   71 Bend                    14    17    20               112.55349
   72 Bend                    15    14    16               106.83025
   73 Bend                    15    14    17               108.31369
   74 Bend                    16    14    17               108.18908
   75 Bend                    17    20    21               116.37478
   76 Bend                    17    20    22               127.97241
   77 Bend                    18    17    19               106.77527
   78 Bend                    18    17    20               110.11542
   79 Bend                    19    17    20               109.26027
   80 Bend                    20    22    23               119.25029
   81 Bend                    20    22    26               122.72937
   82 Bend                    21    20    22               115.64908
   83 Bend                    22    23    24               121.84006
   84 Bend                    22    23    25               117.26740
   85 Bend                    22    26    27               118.62918
   86 Bend                    22    26    28               120.61500
   87 Bend                    23    22    26               118.01883
   88 Bend                    24    23    25               120.85782
   89 Bend                    27    26    28               120.74193
   90 Bend                    29    31    32               118.06101
   91 Bend                    29    31    33               123.69046
   92 Bend                    30    29    31               122.43723
   93 Bend                    31    33    34               108.56810
   94 Bend                    31    33    35               109.40950
   95 Bend                    31    33    36               114.42890
   96 Bend                    32    31    33               118.19285
   97 Bend                    33    36    37               121.85409
   98 Bend                    33    36    38               117.45736
   99 Bend                    34    33    35               107.75256
  100 Bend                    34    33    36               108.21363
  101 Bend                    35    33    36               108.26783
  102 Bend                    36    38    39               120.39127
  103 Bend                    36    38    40               118.94375
  104 Bend                    37    36    38               120.68634
  105 Bend                    39    38    40               120.65231
  106 Torsion                  1     2     5     6           0.28262
  107 Torsion                  1     2     5     7         179.92636
  108 Torsion                  2     5     7     8           2.26087
  109 Torsion                  2     5     7     9         176.47924
  110 Torsion                  3     2     5     6         119.64895
  111 Torsion                  3     2     5     7         -60.70731
  112 Torsion                  4     2     5     6        -119.44614
  113 Torsion                  4     2     5     7          60.19760
  114 Torsion                  5     7     9    10         -39.23143
  115 Torsion                  5     7     9    11          77.40331
  116 Torsion                  5     7     9    29        -155.45458
  117 Torsion                  6     5     7     8        -178.10445
  118 Torsion                  6     5     7     9          -3.88608
  119 Torsion                  7     9    11    12         165.64450
  120 Torsion                  7     9    11    13         -79.70742
  121 Torsion                  7     9    11    14          40.53351
  122 Torsion                  7     9    29    30         -31.44772
  123 Torsion                  7     9    29    31         150.25795
  124 Torsion                  8     7     9    10         134.98814
  125 Torsion                  8     7     9    11        -108.37713
  126 Torsion                  8     7     9    29          18.76498
  127 Torsion                  9    11    14    15         179.54660
  128 Torsion                  9    11    14    16         -64.97043
  129 Torsion                  9    11    14    17          57.66534
  130 Torsion                  9    29    31    32          -0.85789
  131 Torsion                  9    29    31    33        -178.09046
  132 Torsion                 10     9    11    12         -77.54891
  133 Torsion                 10     9    11    13          37.09917
  134 Torsion                 10     9    11    14         157.34010
  135 Torsion                 10     9    29    30        -148.20924
  136 Torsion                 10     9    29    31          33.49643
  137 Torsion                 11     9    29    30          94.97059
  138 Torsion                 11     9    29    31         -83.32374
  139 Torsion                 11    14    17    18         177.13747
  140 Torsion                 11    14    17    19         -66.68970
  141 Torsion                 11    14    17    20          54.66519
  142 Torsion                 12    11     9    29          38.90878
  143 Torsion                 12    11    14    15          54.45281
  144 Torsion                 12    11    14    16         169.93579
  145 Torsion                 12    11    14    17         -67.42845
  146 Torsion                 13    11     9    29         153.55686
  147 Torsion                 13    11    14    15         -59.91567
  148 Torsion                 13    11    14    16          55.56730
  149 Torsion                 13    11    14    17         178.20307
  150 Torsion                 14    11     9    29         -86.20221
  151 Torsion                 14    17    20    21         -96.89314
  152 Torsion                 14    17    20    22          83.84534
  153 Torsion                 15    14    17    18          55.57464
  154 Torsion                 15    14    17    19         171.74747
  155 Torsion                 15    14    17    20         -66.89764
  156 Torsion                 16    14    17    18         -59.87881
  157 Torsion                 16    14    17    19          56.29402
  158 Torsion                 16    14    17    20         177.64892
  159 Torsion                 17    20    22    23        -177.53178
  160 Torsion                 17    20    22    26           2.01355
  161 Torsion                 18    17    20    21         141.26279
  162 Torsion                 18    17    20    22         -37.99873
  163 Torsion                 19    17    20    21          24.29010
  164 Torsion                 19    17    20    22        -154.97142
  165 Torsion                 20    22    23    24        -179.76510
  166 Torsion                 20    22    23    25           2.36144
  167 Torsion                 20    22    26    27           0.95957
  168 Torsion                 20    22    26    28         179.61375
  169 Torsion                 21    20    22    23           3.20215
  170 Torsion                 21    20    22    26        -177.25252
  171 Torsion                 23    22    26    27        -179.48979
  172 Torsion                 23    22    26    28          -0.83562
  173 Torsion                 24    23    22    26           0.66817
  174 Torsion                 25    23    22    26        -177.20529
  175 Torsion                 29    31    33    34          57.36571
  176 Torsion                 29    31    33    35         174.71343
  177 Torsion                 29    31    33    36         -63.61361
  178 Torsion                 30    29    31    32        -179.11202
  179 Torsion                 30    29    31    33           3.65540
  180 Torsion                 31    33    36    37         -18.61378
  181 Torsion                 31    33    36    38         161.92440
  182 Torsion                 32    31    33    34        -119.86345
  183 Torsion                 32    31    33    35          -2.51574
  184 Torsion                 32    31    33    36         119.15723
  185 Torsion                 33    36    38    39          -0.98117
  186 Torsion                 33    36    38    40        -179.69523
  187 Torsion                 34    33    36    37        -139.78865
  188 Torsion                 34    33    36    38          40.74953
  189 Torsion                 35    33    36    37         103.68291
  190 Torsion                 35    33    36    38         -75.77891
  191 Torsion                 37    36    38    39         179.55039
  192 Torsion                 37    36    38    40           0.83633


            XYZ format geometry
            -------------------
    40
 geometry
 H                    -0.07756602    -5.90790228    -0.87906858
 C                    -0.22323447    -4.89854104    -1.26292869
 H                    -1.16527513    -4.85358948    -1.80697073
 H                     0.60164731    -4.63852360    -1.92156894
 C                    -0.26694065    -3.93561285    -0.09892651
 O                    -0.14101649    -4.34468819     1.04669406
 N                    -0.43944934    -2.64255507    -0.38897362
 H                    -0.56474146    -2.39193568    -1.36043531
 C                    -0.58081861    -1.57417176     0.61680360
 H                    -1.19226796    -1.97341282     1.42836338
 C                     0.78879263    -1.19254770     1.22997333
 H                     0.68657737    -0.24796978     1.76501689
 H                     1.02564887    -1.94730688     1.98198909
 C                     2.01169130    -1.10850801     0.29098974
 H                     2.87378301    -0.82230872     0.89400868
 H                     2.22028923    -2.10320338    -0.10641310
 C                     1.90389498    -0.13263565    -0.89105218
 H                     2.84669841    -0.13356665    -1.43951350
 H                     1.13868046    -0.49328673    -1.57973174
 N                     1.56647354     1.24000271    -0.46337392
 H                     0.58696325     1.50031099    -0.51492178
 C                     2.38513317     2.18012818    -0.03266925
 N                     1.89615210     3.32236944     0.34792557
 H                     2.48178598     4.06371002     0.67805905
 H                     0.88419318     3.42567461     0.32921228
 N                     3.67586467     2.01248525     0.03804888
 H                     4.06381659     1.13724656    -0.26062076
 H                     4.26964003     2.75137340     0.36523248
 C                    -1.33707381    -0.36492753     0.06368747
 O                    -1.25141550    -0.07316784    -1.12522167
 N                    -2.04896137     0.35919833     0.92857581
 H                    -2.06281134     0.06684260     1.89343762
 C                    -2.86019458     1.52345567     0.54384792
 H                    -3.58550786     1.20840383    -0.20787608
 H                    -3.41494184     1.88127531     1.41168349
 C                    -2.05366834     2.69802779    -0.02981117
 O                    -0.83901937     2.80323989     0.15156218
 N                    -2.71513734     3.61147912    -0.72526889
 H                    -3.70746310     3.51749088    -0.87663531
 H                    -2.20762361     4.38874581    -1.11554610

 ==============================================================================
                                internuclear distances
 ------------------------------------------------------------------------------
       center one      |      center two      | atomic units |  angstroms
 ------------------------------------------------------------------------------
    2 C                |   1 H                |     2.05918  |     1.08967
    3 H                |   2 C                |     2.05750  |     1.08878
    4 H                |   2 C                |     2.05437  |     1.08713
    5 C                |   2 C                |     2.85595  |     1.51130
    6 O                |   5 C                |     2.31107  |     1.22297
    7 N                |   5 C                |     2.52537  |     1.33637
    8 H                |   7 N                |     1.91063  |     1.01106
    9 C                |   7 N                |     2.78567  |     1.47412
   10 H                |   9 C                |     2.06309  |     1.09174
   11 C                |   9 C                |     2.92599  |     1.54837
   12 H                |  11 C                |     2.06054  |     1.09039
   13 H                |  11 C                |     2.06256  |     1.09146
   14 C                |  11 C                |     2.91792  |     1.54410
   15 H                |  14 C                |     2.06036  |     1.09030
   16 H                |  14 C                |     2.06219  |     1.09127
   17 C                |  14 C                |     2.90377  |     1.53661
   18 H                |  17 C                |     2.06118  |     1.09073
   19 H                |  17 C                |     2.06136  |     1.09083
   20 N                |  17 C                |     2.79072  |     1.47679
   21 H                |  20 N                |     1.91773  |     1.01482
   22 C                |  20 N                |     2.49239  |     1.31892
   23 N                |  22 C                |     2.45568  |     1.29949
   24 H                |  23 N                |     1.89118  |     1.00077
   25 H                |  23 N                |     1.92259  |     1.01739
   26 N                |  22 C                |     2.46324  |     1.30349
   27 H                |  26 N                |     1.89515  |     1.00287
   28 H                |  26 N                |     1.89499  |     1.00278
   29 C                |   9 C                |     2.89081  |     1.52975
   30 O                |  29 C                |     2.31903  |     1.22718
   31 N                |  29 C                |     2.52062  |     1.33386
   32 H                |  31 N                |     1.90537  |     1.00828
   33 C                |  31 N                |     2.77835  |     1.47024
   34 H                |  33 C                |     2.06182  |     1.09107
   35 H                |  33 C                |     2.06051  |     1.09038
   36 C                |  33 C                |     2.90255  |     1.53597
   37 O                |  36 C                |     2.32930  |     1.23261
   38 N                |  36 C                |     2.50387  |     1.32499
   39 H                |  38 N                |     1.90521  |     1.00819
   40 H                |  38 N                |     1.90294  |     1.00699
 ------------------------------------------------------------------------------
                         number of included internuclear distances:         39
 ==============================================================================



 ==============================================================================
                                 internuclear angles
 ------------------------------------------------------------------------------
        center 1       |       center 2       |       center 3       |  degrees
 ------------------------------------------------------------------------------
    1 H                |   2 C                |   3 H                |   109.26
    1 H                |   2 C                |   4 H                |   109.48
    1 H                |   2 C                |   5 C                |   108.83
    3 H                |   2 C                |   4 H                |   110.11
    3 H                |   2 C                |   5 C                |   109.48
    4 H                |   2 C                |   5 C                |   109.64
    2 C                |   5 C                |   6 O                |   120.36
    2 C                |   5 C                |   7 N                |   116.94
    6 O                |   5 C                |   7 N                |   122.70
    5 C                |   7 N                |   8 H                |   117.67
    5 C                |   7 N                |   9 C                |   124.44
    8 H                |   7 N                |   9 C                |   117.65
    7 N                |   9 C                |  10 H                |   107.21
    7 N                |   9 C                |  11 C                |   111.35
    7 N                |   9 C                |  29 C                |   111.94
   10 H                |   9 C                |  11 C                |   106.93
   10 H                |   9 C                |  29 C                |   106.32
   11 C                |   9 C                |  29 C                |   112.68
    9 C                |  11 C                |  12 H                |   108.96
    9 C                |  11 C                |  13 H                |   107.12
    9 C                |  11 C                |  14 C                |   118.24
   12 H                |  11 C                |  13 H                |   106.34
   12 H                |  11 C                |  14 C                |   109.00
   13 H                |  11 C                |  14 C                |   106.54
   11 C                |  14 C                |  15 H                |   107.71
   11 C                |  14 C                |  16 H                |   108.86
   11 C                |  14 C                |  17 C                |   116.54
   15 H                |  14 C                |  16 H                |   106.83
   15 H                |  14 C                |  17 C                |   108.31
   16 H                |  14 C                |  17 C                |   108.19
   14 C                |  17 C                |  18 H                |   109.00
   14 C                |  17 C                |  19 H                |   108.96
   14 C                |  17 C                |  20 N                |   112.55
   18 H                |  17 C                |  19 H                |   106.78
   18 H                |  17 C                |  20 N                |   110.12
   19 H                |  17 C                |  20 N                |   109.26
   17 C                |  20 N                |  21 H                |   116.37
   17 C                |  20 N                |  22 C                |   127.97
   21 H                |  20 N                |  22 C                |   115.65
   20 N                |  22 C                |  23 N                |   119.25
   20 N                |  22 C                |  26 N                |   122.73
   23 N                |  22 C                |  26 N                |   118.02
   22 C                |  23 N                |  24 H                |   121.84
   22 C                |  23 N                |  25 H                |   117.27
   24 H                |  23 N                |  25 H                |   120.86
   22 C                |  26 N                |  27 H                |   118.63
   22 C                |  26 N                |  28 H                |   120.62
   27 H                |  26 N                |  28 H                |   120.74
    9 C                |  29 C                |  30 O                |   120.25
    9 C                |  29 C                |  31 N                |   117.29
   30 O                |  29 C                |  31 N                |   122.44
   29 C                |  31 N                |  32 H                |   118.06
   29 C                |  31 N                |  33 C                |   123.69
   32 H                |  31 N                |  33 C                |   118.19
   31 N                |  33 C                |  34 H                |   108.57
   31 N                |  33 C                |  35 H                |   109.41
   31 N                |  33 C                |  36 C                |   114.43
   34 H                |  33 C                |  35 H                |   107.75
   34 H                |  33 C                |  36 C                |   108.21
   35 H                |  33 C                |  36 C                |   108.27
   33 C                |  36 C                |  37 O                |   121.85
   33 C                |  36 C                |  38 N                |   117.46
   37 O                |  36 C                |  38 N                |   120.69
   36 C                |  38 N                |  39 H                |   120.39
   36 C                |  38 N                |  40 H                |   118.94
   39 H                |  38 N                |  40 H                |   120.65
 ------------------------------------------------------------------------------
                            number of included internuclear angles:         66
 ==============================================================================



  library name resolved from: environment
  library file name is: </opt/rit/el9/20230413/app/linux-rhel9-x86_64_v3/gcc-11.2.1/nwchem-7.2.0-oxtctbuhfuzyfaoziquq6bki22grib3g/share/nwchem/libraries/>
  


 Summary of "ao basis" -> "" (cartesian)
 ------------------------------------------------------------------------------
       Tag                 Description            Shells   Functions and Types
 ---------------- ------------------------------  ------  ---------------------
 *                        aug-cc-pvdz                 on all atoms 


                      Basis "ao basis" -> "ao basis" (cartesian)
                      -----
  H (Hydrogen)
  ------------
            Exponent  Coefficients 
       -------------- ---------------------------------------------------------
  1 S  1.30100000E+01  0.019685
  1 S  1.96200000E+00  0.137977
  1 S  4.44600000E-01  0.478148

  2 S  1.22000000E-01  1.000000

  3 S  2.97400000E-02  1.000000

  4 P  7.27000000E-01  1.000000

  5 P  1.41000000E-01  1.000000

  C (Carbon)
  ----------
            Exponent  Coefficients 
       -------------- ---------------------------------------------------------
  1 S  6.66500000E+03  0.000692
  1 S  1.00000000E+03  0.005329
  1 S  2.28000000E+02  0.027077
  1 S  6.47100000E+01  0.101718
  1 S  2.10600000E+01  0.274740
  1 S  7.49500000E+00  0.448564
  1 S  2.79700000E+00  0.285074
  1 S  5.21500000E-01  0.015204

  2 S  6.66500000E+03 -0.000146
  2 S  1.00000000E+03 -0.001154
  2 S  2.28000000E+02 -0.005725
  2 S  6.47100000E+01 -0.023312
  2 S  2.10600000E+01 -0.063955
  2 S  7.49500000E+00 -0.149981
  2 S  2.79700000E+00 -0.127262
  2 S  5.21500000E-01  0.544529

  3 S  1.59600000E-01  1.000000

  4 S  4.69000000E-02  1.000000

  5 P  9.43900000E+00  0.038109
  5 P  2.00200000E+00  0.209480
  5 P  5.45600000E-01  0.508557

  6 P  1.51700000E-01  1.000000

  7 P  4.04100000E-02  1.000000

  8 D  5.50000000E-01  1.000000

  9 D  1.51000000E-01  1.000000

  O (Oxygen)
  ----------
            Exponent  Coefficients 
       -------------- ---------------------------------------------------------
  1 S  1.17200000E+04  0.000710
  1 S  1.75900000E+03  0.005470
  1 S  4.00800000E+02  0.027837
  1 S  1.13700000E+02  0.104800
  1 S  3.70300000E+01  0.283062
  1 S  1.32700000E+01  0.448719
  1 S  5.02500000E+00  0.270952
  1 S  1.01300000E+00  0.015458

  2 S  1.17200000E+04 -0.000160
  2 S  1.75900000E+03 -0.001263
  2 S  4.00800000E+02 -0.006267
  2 S  1.13700000E+02 -0.025716
  2 S  3.70300000E+01 -0.070924
  2 S  1.32700000E+01 -0.165411
  2 S  5.02500000E+00 -0.116955
  2 S  1.01300000E+00  0.557368

  3 S  3.02300000E-01  1.000000

  4 S  7.89600000E-02  1.000000

  5 P  1.77000000E+01  0.043018
  5 P  3.85400000E+00  0.228913
  5 P  1.04600000E+00  0.508728

  6 P  2.75300000E-01  1.000000

  7 P  6.85600000E-02  1.000000

  8 D  1.18500000E+00  1.000000

  9 D  3.32000000E-01  1.000000

  N (Nitrogen)
  ------------
            Exponent  Coefficients 
       -------------- ---------------------------------------------------------
  1 S  9.04600000E+03  0.000700
  1 S  1.35700000E+03  0.005389
  1 S  3.09300000E+02  0.027406
  1 S  8.77300000E+01  0.103207
  1 S  2.85600000E+01  0.278723
  1 S  1.02100000E+01  0.448540
  1 S  3.83800000E+00  0.278238
  1 S  7.46600000E-01  0.015440

  2 S  9.04600000E+03 -0.000153
  2 S  1.35700000E+03 -0.001208
  2 S  3.09300000E+02 -0.005992
  2 S  8.77300000E+01 -0.024544
  2 S  2.85600000E+01 -0.067459
  2 S  1.02100000E+01 -0.158078
  2 S  3.83800000E+00 -0.121831
  2 S  7.46600000E-01  0.549003

  3 S  2.24800000E-01  1.000000

  4 S  6.12400000E-02  1.000000

  5 P  1.35500000E+01  0.039919
  5 P  2.91700000E+00  0.217169
  5 P  7.97300000E-01  0.510319

  6 P  2.18500000E-01  1.000000

  7 P  5.61100000E-02  1.000000

  8 D  8.17000000E-01  1.000000

  9 D  2.30000000E-01  1.000000



 Summary of "ao basis" -> "ao basis" (cartesian)
 ------------------------------------------------------------------------------
       Tag                 Description            Shells   Functions and Types
 ---------------- ------------------------------  ------  ---------------------
 H                        aug-cc-pvdz                5        9   3s2p
 C                        aug-cc-pvdz                9       25   4s3p2d
 O                        aug-cc-pvdz                9       25   4s3p2d
 N                        aug-cc-pvdz                9       25   4s3p2d


 ------------------------------------------------------------------------
 scf: no. of closed-shell electrons is not even!                   0
 ------------------------------------------------------------------------
 ------------------------------------------------------------------------
  current input line : 
    55: task scf energy
 ------------------------------------------------------------------------
 ------------------------------------------------------------------------
 There is an error in the input file
 ------------------------------------------------------------------------
 For more information see the NWChem manual at https://nwchemgit.github.io


 For further details see manual section:                                                                                                                                                                                                                                                                
0:scf: no. of closed-shell electrons is not even!:Received an Error in Communication
--------------------------------------------------------------------------
MPI_ABORT was invoked on rank 0 in communicator MPI COMMUNICATOR 3 DUP FROM 0
with errorcode -1.

NOTE: invoking MPI_ABORT causes Open MPI to kill all MPI processes.
You may or may not see output from other processes, depending on
exactly when Open MPI kills them.
--------------------------------------------------------------------------
slurmstepd: error: *** STEP 6606886.10 ON nova21-swift-3 CANCELLED AT 2025-07-08T09:10:28 ***
srun: Job step aborted: Waiting up to 32 seconds for job step to finish.
srun: error: nova21-swift-3: task 0: Exited with exit code 255
