export TMOUT=5400
export TMPDIR=/tmp
export PTMPDIR=/tmp/ptmp
 argument  1 = inputs/ASN_GLN_4.nw



============================== echo of input deck ==============================
start ASN_GLN_4
geometry
H         -0.62100       18.19400        1.91900
C         -1.25100       17.91700        2.76300
H         -2.11100       18.58100        2.81900
H         -0.67500       17.98500        3.68500
C         -1.72600       16.49500        2.58700
O         -1.42500       15.63500        3.40100
N         -2.45400       16.23500        1.50400
H         -2.63200       16.98500        0.84900
C         -2.97600       14.90500        1.15600
H         -3.39700       14.44800        2.05400
C         -4.09400       15.09600        0.11500
H         -4.62400       14.15300       -0.02000
H         -4.81100       15.83900        0.46400
C         -3.52700       15.55000       -1.22000
O         -3.08200       16.67600       -1.36800
N         -3.45200       14.66900       -2.18800
H         -3.69500       13.71000       -2.01200
H         -2.93600       14.93100       -3.02300
C         -1.90700       13.93000        0.60600
O         -2.24400       12.81200        0.22000
N         -0.65900       14.38000        0.46200
H         -0.43400       15.28000        0.86100
C          0.39300       13.73000       -0.32300
H          0.35200       12.65500       -0.14100
C          0.14100       13.98400       -1.82500
H          0.87300       13.42900       -2.41200
H         -0.84200       13.57900       -2.06600
C          0.20300       15.47400       -2.23400
H         -0.24900       16.09400       -1.46000
H          1.24800       15.77100       -2.32600
C         -0.52400       15.80200       -3.53800
O         -1.32400       15.04900       -4.07000
N         -0.29300       16.96400       -4.10400
H          0.31400       17.63300       -3.67000
H         -0.82000       17.15900       -4.93600
C          1.77800       14.24200        0.09900
O          1.93200       15.39000        0.50400
N          2.81200       13.42100       -0.02200
H          2.67900       12.48200       -0.35900
H          3.71900       13.75900        0.25300
end

basis
 * library aug-cc-pvdz
end

echo

scf
 direct
end

task scf energy
================================================================================


                                         
                                         


             Northwest Computational Chemistry Package (NWChem) 7.2.0
             --------------------------------------------------------


                    Environmental Molecular Sciences Laboratory
                       Pacific Northwest National Laboratory
                                Richland, WA 99352

                              Copyright (c) 1994-2022
                       Pacific Northwest National Laboratory
                            Battelle Memorial Institute

             NWChem is an open-source computational chemistry package
                        distributed under the terms of the
                      Educational Community License (ECL) 2.0
             A copy of the license is included with this distribution
                              in the LICENSE.TXT file

                                  ACKNOWLEDGMENT
                                  --------------

            This software and its documentation were developed at the
            EMSL at Pacific Northwest National Laboratory, a multiprogram
            national laboratory, operated for the U.S. Department of Energy
            by Battelle under Contract Number DE-AC05-76RL01830. Support
            for this work was provided by the Department of Energy Office
            of Biological and Environmental Research, Office of Basic
            Energy Sciences, and the Office of Advanced Scientific Computing.


           Job information
           ---------------

    hostname        = nova21-speedy-11
    program         = /opt/rit/el9/20230413/app/linux-rhel9-x86_64_v3/gcc-11.2.1/nwchem-7.2.0-oxtctbuhfuzyfaoziquq6bki22grib3g/bin/nwchem
    date            = Thu Jul 10 07:29:43 2025

    compiled        = Wed_May_17_23:46:39_2023
    source          = /tmp/root/spack-stage/spack-stage-nwchem-7.2.0-oxtctbuhfuzyfaoziquq6bki22grib3g/spack-src
    nwchem branch   = 7.2.0
    nwchem revision = d0d141fd
    ga revision     = 5.8.0
    use scalapack   = T
    input           = inputs/ASN_GLN_4.nw
    prefix          = ASN_GLN_4.
    data base       = ./ASN_GLN_4.db
    status          = startup
    nproc           =        8
    time left       =     -1s



           Memory information
           ------------------

    heap     =   26214394 doubles =    200.0 Mbytes
    stack    =   26214399 doubles =    200.0 Mbytes
    global   =   52428800 doubles =    400.0 Mbytes (distinct from heap & stack)
    total    =  104857593 doubles =    800.0 Mbytes
    verify   = yes
    hardfail = no 


           Directory information
           ---------------------

  0 permanent = .
  0 scratch   = .




                                NWChem Input Module
                                -------------------



 Scaling coordinates for geometry "geometry" by  1.889725989
 (inverse scale =  0.529177249)

 C1  symmetry detected

          ------
          auto-z
          ------
  no constraints, skipping    0.0000000000000000     
  no constraints, skipping    0.0000000000000000     


                             Geometry "geometry" -> ""
                             -------------------------

 Output coordinates in angstroms (scale by  1.889725989 to convert to a.u.)

  No.       Tag          Charge          X              Y              Z
 ---- ---------------- ---------- -------------- -------------- --------------
    1 H                    1.0000     0.42090686    -2.38707474     2.95226994
    2 C                    6.0000     0.16078530    -3.33908270     2.49185422
    3 H                    1.0000    -0.77515675    -3.70885091     2.90527404
    4 H                    1.0000     0.95417632    -4.06200291     2.67732938
    5 C                    6.0000     0.01061603    -3.14948837     1.00182463
    6 O                    8.0000     0.74035692    -3.74531097     0.22383320
    7 N                    7.0000    -0.92553795    -2.29508046     0.59676183
    8 H                    1.0000    -1.46741012    -1.80384405     1.29552526
    9 C                    6.0000    -1.19305570    -1.96502422    -0.81106811
   10 H                    1.0000    -1.20084742    -2.88953863    -1.39219322
   11 C                    6.0000    -2.58460331    -1.31060180    -0.88463815
   12 H                    1.0000    -2.88808703    -1.22830292    -1.92842861
   13 H                    1.0000    -3.31913641    -1.92774902    -0.36740568
   14 C                    6.0000    -2.57325740     0.07193340    -0.25352986
   15 O                    8.0000    -2.47751794     0.21509552     0.95400630
   16 N                    7.0000    -2.58477624     1.11232227    -1.05119415
   17 H                    1.0000    -2.52575624     0.98129351    -2.04570614
   18 H                    1.0000    -2.42352548     2.02513867    -0.63539441
   19 C                    6.0000    -0.13872476    -1.03123176    -1.45317706
   20 O                    8.0000    -0.29788428    -0.63591730    -2.60681640
   21 N                    7.0000     0.86134994    -0.59028217    -0.68757008
   22 H                    1.0000     0.97340256    -1.00571413     0.22604171
   23 C                    6.0000     1.75109070     0.52687126    -1.01277554
   24 H                    1.0000     2.02613901     0.46005206    -2.06648974
   25 C                    6.0000     1.00435117     1.85870803    -0.78339619
   26 H                    1.0000     1.63578890     2.68619428    -1.10738830
   27 H                    1.0000     0.12180486     1.85463766    -1.42331058
   28 C                    6.0000     0.58059280     2.10212594     0.68371034
   29 H                    1.0000     0.24834270     1.16857083     1.13743354
   30 H                    1.0000     1.44576834     2.45289686     1.24685245
   31 C                    6.0000    -0.56242696     3.10273443     0.85346746
   32 O                    8.0000    -1.28043446     3.46598157    -0.06443763
   33 N                    7.0000    -0.79892476     3.57963490     2.05371566
   34 H                    1.0000    -0.26841363     3.26437128     2.84335658
   35 H                    1.0000    -1.58305285     4.20175686     2.13172467
   36 C                    6.0000     3.03350343     0.46050167    -0.17047769
   37 O                    8.0000     3.02234653    -0.00800903     0.96354976
   38 N                    7.0000     4.14805048     0.95871028    -0.68759573
   39 H                    1.0000     4.14895366     1.34539626    -1.61681698
   40 H                    1.0000     4.98681034     0.91624184    -0.13334279

      Atomic Mass 
      ----------- 

      H                  1.007825
      C                 12.000000
      O                 15.994910
      N                 14.003070


 Effective nuclear repulsion energy (a.u.)    1882.0935402629

            Nuclear Dipole moment (a.u.) 
            ----------------------------
        X                 Y               Z
 ---------------- ---------------- ----------------
     0.0000000000     0.0000000000    -0.0000000000



                                Z-matrix (autoz)
                                -------- 

 Units are Angstrom for bonds and degrees for angles

      Type          Name      I     J     K     L     M      Value
      ----------- --------  ----- ----- ----- ----- ----- ----------
    1 Stretch                  1     2                       1.08902
    2 Stretch                  2     3                       1.08795
    3 Stretch                  2     4                       1.08926
    4 Stretch                  2     5                       1.50953
    5 Stretch                  5     6                       1.22180
    6 Stretch                  5     7                       1.33059
    7 Stretch                  7     8                       1.01154
    8 Stretch                  7     9                       1.47054
    9 Stretch                  9    10                       1.09201
   10 Stretch                  9    11                       1.53951
   11 Stretch                  9    19                       1.54786
   12 Stretch                 11    12                       1.09013
   13 Stretch                 11    13                       1.08993
   14 Stretch                 11    14                       1.51981
   15 Stretch                 14    15                       1.21976
   16 Stretch                 14    16                       1.31103
   17 Stretch                 16    17                       1.00484
   18 Stretch                 16    18                       1.01594
   19 Stretch                 19    20                       1.22983
   20 Stretch                 19    21                       1.33444
   21 Stretch                 21    22                       1.00986
   22 Stretch                 21    23                       1.46473
   23 Stretch                 23    24                       1.09107
   24 Stretch                 23    25                       1.54403
   25 Stretch                 23    36                       1.53573
   26 Stretch                 25    26                       1.09015
   27 Stretch                 25    27                       1.09014
   28 Stretch                 25    28                       1.54636
   29 Stretch                 28    29                       1.08985
   30 Stretch                 28    30                       1.09027
   31 Stretch                 28    31                       1.52857
   32 Stretch                 31    32                       1.22067
   33 Stretch                 31    33                       1.31300
   34 Stretch                 33    34                       1.00218
   35 Stretch                 33    35                       1.00398
   36 Stretch                 36    37                       1.22705
   37 Stretch                 36    38                       1.32583
   38 Stretch                 38    39                       1.00647
   39 Stretch                 38    40                       1.00624
   40 Bend                     1     2     3               109.99543
   41 Bend                     1     2     4               109.52471
   42 Bend                     1     2     5               109.34669
   43 Bend                     2     5     6               120.52179
   44 Bend                     2     5     7               116.81628
   45 Bend                     3     2     4               109.65373
   46 Bend                     3     2     5               109.40216
   47 Bend                     4     2     5               108.89854
   48 Bend                     5     7     8               118.58336
   49 Bend                     5     7     9               124.30197
   50 Bend                     6     5     7               122.65026
   51 Bend                     7     9    10               108.70797
   52 Bend                     7     9    11               107.79383
   53 Bend                     7     9    19               114.11906
   54 Bend                     8     7     9               117.05751
   55 Bend                     9    11    12               109.23757
   56 Bend                     9    11    13               110.22972
   57 Bend                     9    11    14               111.10618
   58 Bend                     9    19    20               119.66308
   59 Bend                     9    19    21               118.15249
   60 Bend                    10     9    11               109.14761
   61 Bend                    10     9    19               107.14826
   62 Bend                    11     9    19               109.84143
   63 Bend                    11    14    15               121.22820
   64 Bend                    11    14    16               117.98036
   65 Bend                    12    11    13               108.03009
   66 Bend                    12    11    14               109.32987
   67 Bend                    13    11    14               108.84766
   68 Bend                    14    16    17               119.87932
   69 Bend                    14    16    18               117.55545
   70 Bend                    15    14    16               120.65570
   71 Bend                    17    16    18               120.85785
   72 Bend                    19    21    22               117.79222
   73 Bend                    19    21    23               125.44225
   74 Bend                    20    19    21               121.93493
   75 Bend                    21    23    24               108.71402
   76 Bend                    21    23    25               109.33706
   77 Bend                    21    23    36               110.64110
   78 Bend                    22    21    23               116.56535
   79 Bend                    23    25    26               109.29685
   80 Bend                    23    25    27               107.52427
   81 Bend                    23    25    28               114.15825
   82 Bend                    23    36    37               121.05089
   83 Bend                    23    36    38               118.15233
   84 Bend                    24    23    25               108.55516
   85 Bend                    24    23    36               108.45353
   86 Bend                    25    23    36               111.07903
   87 Bend                    25    28    29               110.10141
   88 Bend                    25    28    30               108.85826
   89 Bend                    25    28    31               114.41382
   90 Bend                    26    25    27               107.29554
   91 Bend                    26    25    28               108.73616
   92 Bend                    27    25    28               109.61237
   93 Bend                    28    31    32               123.44464
   94 Bend                    28    31    33               118.29234
   95 Bend                    29    28    30               107.60609
   96 Bend                    29    28    31               106.65020
   97 Bend                    30    28    31               108.99097
   98 Bend                    31    33    34               120.70749
   99 Bend                    31    33    35               115.89818
  100 Bend                    32    31    33               118.25276
  101 Bend                    34    33    35               123.17143
  102 Bend                    36    38    39               120.34610
  103 Bend                    36    38    40               118.03598
  104 Bend                    37    36    38               120.76941
  105 Bend                    39    38    40               121.60147
  106 Torsion                  1     2     5     6         118.24153
  107 Torsion                  1     2     5     7         -60.54811
  108 Torsion                  2     5     7     8           1.49250
  109 Torsion                  2     5     7     9         178.65678
  110 Torsion                  3     2     5     6        -121.23504
  111 Torsion                  3     2     5     7          59.97532
  112 Torsion                  4     2     5     6          -1.40182
  113 Torsion                  4     2     5     7         179.80853
  114 Torsion                  5     7     9    10          44.57331
  115 Torsion                  5     7     9    11         162.76234
  116 Torsion                  5     7     9    19         -74.94375
  117 Torsion                  6     5     7     8        -177.26917
  118 Torsion                  6     5     7     9          -0.10488
  119 Torsion                  7     9    11    12        -169.36940
  120 Torsion                  7     9    11    13         -50.81613
  121 Torsion                  7     9    11    14          69.93390
  122 Torsion                  7     9    19    20        -176.37055
  123 Torsion                  7     9    19    21          -1.99656
  124 Torsion                  8     7     9    10        -138.22280
  125 Torsion                  8     7     9    11         -20.03377
  126 Torsion                  8     7     9    19         102.26014
  127 Torsion                  9    11    14    15         -71.35391
  128 Torsion                  9    11    14    16         104.43705
  129 Torsion                  9    19    21    22          10.10655
  130 Torsion                  9    19    21    23        -164.55832
  131 Torsion                 10     9    11    12         -51.46335
  132 Torsion                 10     9    11    13          67.08993
  133 Torsion                 10     9    11    14        -172.16004
  134 Torsion                 10     9    19    20          63.23674
  135 Torsion                 10     9    19    21        -122.38927
  136 Torsion                 11     9    19    20         -55.20519
  137 Torsion                 11     9    19    21         119.16879
  138 Torsion                 11    14    16    17          -4.92613
  139 Torsion                 11    14    16    18        -170.17106
  140 Torsion                 12    11     9    19          65.73665
  141 Torsion                 12    11    14    15         168.00385
  142 Torsion                 12    11    14    16         -16.20519
  143 Torsion                 13    11     9    19        -175.71008
  144 Torsion                 13    11    14    15          50.20741
  145 Torsion                 13    11    14    16        -134.00163
  146 Torsion                 14    11     9    19         -54.96005
  147 Torsion                 15    14    16    17         170.89001
  148 Torsion                 15    14    16    18           5.64508
  149 Torsion                 19    21    23    24         -42.21957
  150 Torsion                 19    21    23    25          76.13607
  151 Torsion                 19    21    23    36        -161.21476
  152 Torsion                 20    19    21    22        -175.65450
  153 Torsion                 20    19    21    23           9.68063
  154 Torsion                 21    23    25    26        -175.11845
  155 Torsion                 21    23    25    27         -58.95790
  156 Torsion                 21    23    25    28          62.87284
  157 Torsion                 21    23    36    37         -31.47492
  158 Torsion                 21    23    36    38         150.41383
  159 Torsion                 22    21    23    24         143.05705
  160 Torsion                 22    21    23    25         -98.58731
  161 Torsion                 22    21    23    36          24.06186
  162 Torsion                 23    25    28    29         -38.53555
  163 Torsion                 23    25    28    30          79.19831
  164 Torsion                 23    25    28    31        -158.61466
  165 Torsion                 23    36    38    39          -1.59216
  166 Torsion                 23    36    38    40         179.86006
  167 Torsion                 24    23    25    26         -56.66376
  168 Torsion                 24    23    25    27          59.49679
  169 Torsion                 24    23    25    28        -178.67247
  170 Torsion                 24    23    36    37        -150.62763
  171 Torsion                 24    23    36    38          31.26112
  172 Torsion                 25    23    36    37          90.15358
  173 Torsion                 25    23    36    38         -87.95767
  174 Torsion                 25    28    31    32          15.21021
  175 Torsion                 25    28    31    33        -165.97664
  176 Torsion                 26    25    23    36          62.49414
  177 Torsion                 26    25    28    29        -160.85157
  178 Torsion                 26    25    28    30         -43.11772
  179 Torsion                 26    25    28    31          79.06932
  180 Torsion                 27    25    23    36         178.65469
  181 Torsion                 27    25    28    29          82.13930
  182 Torsion                 27    25    28    30        -160.12684
  183 Torsion                 27    25    28    31         -37.93981
  184 Torsion                 28    25    23    36         -59.51457
  185 Torsion                 28    31    33    34          -2.60644
  186 Torsion                 28    31    33    35        -177.35034
  187 Torsion                 29    28    31    32        -106.77489
  188 Torsion                 29    28    31    33          72.03826
  189 Torsion                 30    28    31    32         137.32486
  190 Torsion                 30    28    31    33         -43.86199
  191 Torsion                 32    31    33    34         176.26931
  192 Torsion                 32    31    33    35           1.52541
  193 Torsion                 37    36    38    39        -179.70896
  194 Torsion                 37    36    38    40           1.74326


            XYZ format geometry
            -------------------
    40
 geometry
 H                     0.42090686    -2.38707474     2.95226994
 C                     0.16078530    -3.33908270     2.49185422
 H                    -0.77515675    -3.70885091     2.90527404
 H                     0.95417632    -4.06200291     2.67732938
 C                     0.01061603    -3.14948837     1.00182463
 O                     0.74035692    -3.74531097     0.22383320
 N                    -0.92553795    -2.29508046     0.59676183
 H                    -1.46741012    -1.80384405     1.29552526
 C                    -1.19305570    -1.96502422    -0.81106811
 H                    -1.20084742    -2.88953863    -1.39219322
 C                    -2.58460331    -1.31060180    -0.88463815
 H                    -2.88808703    -1.22830292    -1.92842861
 H                    -3.31913641    -1.92774902    -0.36740568
 C                    -2.57325740     0.07193340    -0.25352986
 O                    -2.47751794     0.21509552     0.95400630
 N                    -2.58477624     1.11232227    -1.05119415
 H                    -2.52575624     0.98129351    -2.04570614
 H                    -2.42352548     2.02513867    -0.63539441
 C                    -0.13872476    -1.03123176    -1.45317706
 O                    -0.29788428    -0.63591730    -2.60681640
 N                     0.86134994    -0.59028217    -0.68757008
 H                     0.97340256    -1.00571413     0.22604171
 C                     1.75109070     0.52687126    -1.01277554
 H                     2.02613901     0.46005206    -2.06648974
 C                     1.00435117     1.85870803    -0.78339619
 H                     1.63578890     2.68619428    -1.10738830
 H                     0.12180486     1.85463766    -1.42331058
 C                     0.58059280     2.10212594     0.68371034
 H                     0.24834270     1.16857083     1.13743354
 H                     1.44576834     2.45289686     1.24685245
 C                    -0.56242696     3.10273443     0.85346746
 O                    -1.28043446     3.46598157    -0.06443763
 N                    -0.79892476     3.57963490     2.05371566
 H                    -0.26841363     3.26437128     2.84335658
 H                    -1.58305285     4.20175686     2.13172467
 C                     3.03350343     0.46050167    -0.17047769
 O                     3.02234653    -0.00800903     0.96354976
 N                     4.14805048     0.95871028    -0.68759573
 H                     4.14895366     1.34539626    -1.61681698
 H                     4.98681034     0.91624184    -0.13334279

 ==============================================================================
                                internuclear distances
 ------------------------------------------------------------------------------
       center one      |      center two      | atomic units |  angstroms
 ------------------------------------------------------------------------------
    2 C                |   1 H                |     2.05795  |     1.08902
    3 H                |   2 C                |     2.05592  |     1.08795
    4 H                |   2 C                |     2.05840  |     1.08926
    5 C                |   2 C                |     2.85260  |     1.50953
    6 O                |   5 C                |     2.30887  |     1.22180
    7 N                |   5 C                |     2.51445  |     1.33059
    8 H                |   7 N                |     1.91153  |     1.01154
    9 C                |   7 N                |     2.77892  |     1.47054
   10 H                |   9 C                |     2.06361  |     1.09201
   11 C                |   9 C                |     2.90925  |     1.53951
   12 H                |  11 C                |     2.06004  |     1.09013
   13 H                |  11 C                |     2.05966  |     1.08993
   14 C                |  11 C                |     2.87203  |     1.51981
   15 O                |  14 C                |     2.30500  |     1.21976
   16 N                |  14 C                |     2.47749  |     1.31103
   17 H                |  16 N                |     1.89887  |     1.00484
   18 H                |  16 N                |     1.91984  |     1.01594
   19 C                |   9 C                |     2.92504  |     1.54786
   20 O                |  19 C                |     2.32405  |     1.22983
   21 N                |  19 C                |     2.52173  |     1.33444
   22 H                |  21 N                |     1.90837  |     1.00986
   23 C                |  21 N                |     2.76794  |     1.46473
   24 H                |  23 C                |     2.06182  |     1.09107
   25 C                |  23 C                |     2.91779  |     1.54403
   26 H                |  25 C                |     2.06008  |     1.09015
   27 H                |  25 C                |     2.06006  |     1.09014
   28 C                |  25 C                |     2.92219  |     1.54636
   29 H                |  28 C                |     2.05952  |     1.08985
   30 H                |  28 C                |     2.06032  |     1.09027
   31 C                |  28 C                |     2.88858  |     1.52857
   32 O                |  31 C                |     2.30673  |     1.22067
   33 N                |  31 C                |     2.48120  |     1.31300
   34 H                |  33 N                |     1.89385  |     1.00218
   35 H                |  33 N                |     1.89725  |     1.00398
   36 C                |  23 C                |     2.90210  |     1.53573
   37 O                |  36 C                |     2.31878  |     1.22705
   38 N                |  36 C                |     2.50546  |     1.32583
   39 H                |  38 N                |     1.90195  |     1.00647
   40 H                |  38 N                |     1.90152  |     1.00624
 ------------------------------------------------------------------------------
                         number of included internuclear distances:         39
 ==============================================================================



 ==============================================================================
                                 internuclear angles
 ------------------------------------------------------------------------------
        center 1       |       center 2       |       center 3       |  degrees
 ------------------------------------------------------------------------------
    1 H                |   2 C                |   3 H                |   110.00
    1 H                |   2 C                |   4 H                |   109.52
    1 H                |   2 C                |   5 C                |   109.35
    3 H                |   2 C                |   4 H                |   109.65
    3 H                |   2 C                |   5 C                |   109.40
    4 H                |   2 C                |   5 C                |   108.90
    2 C                |   5 C                |   6 O                |   120.52
    2 C                |   5 C                |   7 N                |   116.82
    6 O                |   5 C                |   7 N                |   122.65
    5 C                |   7 N                |   8 H                |   118.58
    5 C                |   7 N                |   9 C                |   124.30
    8 H                |   7 N                |   9 C                |   117.06
    7 N                |   9 C                |  10 H                |   108.71
    7 N                |   9 C                |  11 C                |   107.79
    7 N                |   9 C                |  19 C                |   114.12
   10 H                |   9 C                |  11 C                |   109.15
   10 H                |   9 C                |  19 C                |   107.15
   11 C                |   9 C                |  19 C                |   109.84
    9 C                |  11 C                |  12 H                |   109.24
    9 C                |  11 C                |  13 H                |   110.23
    9 C                |  11 C                |  14 C                |   111.11
   12 H                |  11 C                |  13 H                |   108.03
   12 H                |  11 C                |  14 C                |   109.33
   13 H                |  11 C                |  14 C                |   108.85
   11 C                |  14 C                |  15 O                |   121.23
   11 C                |  14 C                |  16 N                |   117.98
   15 O                |  14 C                |  16 N                |   120.66
   14 C                |  16 N                |  17 H                |   119.88
   14 C                |  16 N                |  18 H                |   117.56
   17 H                |  16 N                |  18 H                |   120.86
    9 C                |  19 C                |  20 O                |   119.66
    9 C                |  19 C                |  21 N                |   118.15
   20 O                |  19 C                |  21 N                |   121.93
   19 C                |  21 N                |  22 H                |   117.79
   19 C                |  21 N                |  23 C                |   125.44
   22 H                |  21 N                |  23 C                |   116.57
   21 N                |  23 C                |  24 H                |   108.71
   21 N                |  23 C                |  25 C                |   109.34
   21 N                |  23 C                |  36 C                |   110.64
   24 H                |  23 C                |  25 C                |   108.56
   24 H                |  23 C                |  36 C                |   108.45
   25 C                |  23 C                |  36 C                |   111.08
   23 C                |  25 C                |  26 H                |   109.30
   23 C                |  25 C                |  27 H                |   107.52
   23 C                |  25 C                |  28 C                |   114.16
   26 H                |  25 C                |  27 H                |   107.30
   26 H                |  25 C                |  28 C                |   108.74
   27 H                |  25 C                |  28 C                |   109.61
   25 C                |  28 C                |  29 H                |   110.10
   25 C                |  28 C                |  30 H                |   108.86
   25 C                |  28 C                |  31 C                |   114.41
   29 H                |  28 C                |  30 H                |   107.61
   29 H                |  28 C                |  31 C                |   106.65
   30 H                |  28 C                |  31 C                |   108.99
   28 C                |  31 C                |  32 O                |   123.44
   28 C                |  31 C                |  33 N                |   118.29
   32 O                |  31 C                |  33 N                |   118.25
   31 C                |  33 N                |  34 H                |   120.71
   31 C                |  33 N                |  35 H                |   115.90
   34 H                |  33 N                |  35 H                |   123.17
   23 C                |  36 C                |  37 O                |   121.05
   23 C                |  36 C                |  38 N                |   118.15
   37 O                |  36 C                |  38 N                |   120.77
   36 C                |  38 N                |  39 H                |   120.35
   36 C                |  38 N                |  40 H                |   118.04
   39 H                |  38 N                |  40 H                |   121.60
 ------------------------------------------------------------------------------
                            number of included internuclear angles:         66
 ==============================================================================



  library name resolved from: environment
  library file name is: </opt/rit/el9/20230413/app/linux-rhel9-x86_64_v3/gcc-11.2.1/nwchem-7.2.0-oxtctbuhfuzyfaoziquq6bki22grib3g/share/nwchem/libraries/>
  


 Summary of "ao basis" -> "" (cartesian)
 ------------------------------------------------------------------------------
       Tag                 Description            Shells   Functions and Types
 ---------------- ------------------------------  ------  ---------------------
 *                        aug-cc-pvdz                 on all atoms 


                      Basis "ao basis" -> "ao basis" (cartesian)
                      -----
  H (Hydrogen)
  ------------
            Exponent  Coefficients 
       -------------- ---------------------------------------------------------
  1 S  1.30100000E+01  0.019685
  1 S  1.96200000E+00  0.137977
  1 S  4.44600000E-01  0.478148

  2 S  1.22000000E-01  1.000000

  3 S  2.97400000E-02  1.000000

  4 P  7.27000000E-01  1.000000

  5 P  1.41000000E-01  1.000000

  C (Carbon)
  ----------
            Exponent  Coefficients 
       -------------- ---------------------------------------------------------
  1 S  6.66500000E+03  0.000692
  1 S  1.00000000E+03  0.005329
  1 S  2.28000000E+02  0.027077
  1 S  6.47100000E+01  0.101718
  1 S  2.10600000E+01  0.274740
  1 S  7.49500000E+00  0.448564
  1 S  2.79700000E+00  0.285074
  1 S  5.21500000E-01  0.015204

  2 S  6.66500000E+03 -0.000146
  2 S  1.00000000E+03 -0.001154
  2 S  2.28000000E+02 -0.005725
  2 S  6.47100000E+01 -0.023312
  2 S  2.10600000E+01 -0.063955
  2 S  7.49500000E+00 -0.149981
  2 S  2.79700000E+00 -0.127262
  2 S  5.21500000E-01  0.544529

  3 S  1.59600000E-01  1.000000

  4 S  4.69000000E-02  1.000000

  5 P  9.43900000E+00  0.038109
  5 P  2.00200000E+00  0.209480
  5 P  5.45600000E-01  0.508557

  6 P  1.51700000E-01  1.000000

  7 P  4.04100000E-02  1.000000

  8 D  5.50000000E-01  1.000000

  9 D  1.51000000E-01  1.000000

  O (Oxygen)
  ----------
            Exponent  Coefficients 
       -------------- ---------------------------------------------------------
  1 S  1.17200000E+04  0.000710
  1 S  1.75900000E+03  0.005470
  1 S  4.00800000E+02  0.027837
  1 S  1.13700000E+02  0.104800
  1 S  3.70300000E+01  0.283062
  1 S  1.32700000E+01  0.448719
  1 S  5.02500000E+00  0.270952
  1 S  1.01300000E+00  0.015458

  2 S  1.17200000E+04 -0.000160
  2 S  1.75900000E+03 -0.001263
  2 S  4.00800000E+02 -0.006267
  2 S  1.13700000E+02 -0.025716
  2 S  3.70300000E+01 -0.070924
  2 S  1.32700000E+01 -0.165411
  2 S  5.02500000E+00 -0.116955
  2 S  1.01300000E+00  0.557368

  3 S  3.02300000E-01  1.000000

  4 S  7.89600000E-02  1.000000

  5 P  1.77000000E+01  0.043018
  5 P  3.85400000E+00  0.228913
  5 P  1.04600000E+00  0.508728

  6 P  2.75300000E-01  1.000000

  7 P  6.85600000E-02  1.000000

  8 D  1.18500000E+00  1.000000

  9 D  3.32000000E-01  1.000000

  N (Nitrogen)
  ------------
            Exponent  Coefficients 
       -------------- ---------------------------------------------------------
  1 S  9.04600000E+03  0.000700
  1 S  1.35700000E+03  0.005389
  1 S  3.09300000E+02  0.027406
  1 S  8.77300000E+01  0.103207
  1 S  2.85600000E+01  0.278723
  1 S  1.02100000E+01  0.448540
  1 S  3.83800000E+00  0.278238
  1 S  7.46600000E-01  0.015440

  2 S  9.04600000E+03 -0.000153
  2 S  1.35700000E+03 -0.001208
  2 S  3.09300000E+02 -0.005992
  2 S  8.77300000E+01 -0.024544
  2 S  2.85600000E+01 -0.067459
  2 S  1.02100000E+01 -0.158078
  2 S  3.83800000E+00 -0.121831
  2 S  7.46600000E-01  0.549003

  3 S  2.24800000E-01  1.000000

  4 S  6.12400000E-02  1.000000

  5 P  1.35500000E+01  0.039919
  5 P  2.91700000E+00  0.217169
  5 P  7.97300000E-01  0.510319

  6 P  2.18500000E-01  1.000000

  7 P  5.61100000E-02  1.000000

  8 D  8.17000000E-01  1.000000

  9 D  2.30000000E-01  1.000000



 Summary of "ao basis" -> "ao basis" (cartesian)
 ------------------------------------------------------------------------------
       Tag                 Description            Shells   Functions and Types
 ---------------- ------------------------------  ------  ---------------------
 H                        aug-cc-pvdz                5        9   3s2p
 C                        aug-cc-pvdz                9       25   4s3p2d
 O                        aug-cc-pvdz                9       25   4s3p2d
 N                        aug-cc-pvdz                9       25   4s3p2d


                                 NWChem SCF Module
                                 -----------------



  ao basis        = "ao basis"
  functions       =   696
  atoms           =    40
  closed shells   =    80
  open shells     =     0
  charge          =   0.00
  wavefunction    = RHF 
  input vectors   = atomic
  output vectors  = ./ASN_GLN_4.movecs
  use symmetry    = F
  symmetry adapt  = F


 Summary of "ao basis" -> "ao basis" (cartesian)
 ------------------------------------------------------------------------------
       Tag                 Description            Shells   Functions and Types
 ---------------- ------------------------------  ------  ---------------------
 H                        aug-cc-pvdz                5        9   3s2p
 C                        aug-cc-pvdz                9       25   4s3p2d
 O                        aug-cc-pvdz                9       25   4s3p2d
 N                        aug-cc-pvdz                9       25   4s3p2d



 Forming initial guess at       1.0s


 !! The overlap matrix has   6 vectors deemed linearly dependent with
    eigenvalues:
 2.08D-06 3.35D-06 4.43D-06 6.79D-06 7.67D-06 8.59D-06


      Superposition of Atomic Density Guess
      -------------------------------------

 Sum of atomic energies:       -1069.17223035

      Non-variational initial energy
      ------------------------------

 Total energy =   -1082.632659
 1-e energy   =   -5198.641818
 2-e energy   =    2233.915619
 HOMO         =      -0.307335
 LUMO         =       0.011393


 Starting SCF solution at     380.4s



 ----------------------------------------------
         Quadratically convergent ROHF

 Convergence threshold     :          1.000E-04
 Maximum no. of iterations :           30
 Final Fock-matrix accuracy:          1.000E-10
 ----------------------------------------------


              iter       energy          gnorm     gmax       time
             ----- ------------------- --------- --------- --------
                 1    -1073.9115397306  2.96D+00  1.91D-01    778.8
                 2    -1074.3679253602  9.46D-01  3.78D-02   1560.2
                 3    -1074.4464005428  7.77D-02  4.20D-03   2717.7
                 4    -1074.4473016600  4.89D-03  4.03D-04   4235.9
                 5    -1074.4473058867  1.04D-05  5.85D-07   6885.7


       Final RHF  results 
       ------------------ 

         Total SCF energy =  -1074.447305886656
      One-electron energy =  -5213.628191297261
      Two-electron energy =   2257.087345147684
 Nuclear repulsion energy =   1882.093540262922

        Time for solution =   6507.6s


             Final eigenvalues
             -----------------

              1      
    1  -20.5430
    2  -20.5311
    3  -20.5303
    4  -20.5242
    5  -20.5219
    6  -15.6172
    7  -15.6013
    8  -15.5996
    9  -15.5967
   10  -15.5800
   11  -11.3767
   12  -11.3649
   13  -11.3641
   14  -11.3539
   15  -11.3515
   16  -11.3092
   17  -11.3084
   18  -11.2616
   19  -11.2559
   20  -11.2524
   21  -11.2390
   22   -1.4059
   23   -1.4036
   24   -1.3956
   25   -1.3894
   26   -1.3836
   27   -1.2560
   28   -1.2441
   29   -1.2374
   30   -1.2343
   31   -1.2191
   32   -1.0900
   33   -1.0720
   34   -1.0042
   35   -0.9983
   36   -0.9236
   37   -0.8892
   38   -0.8338
   39   -0.8130
   40   -0.8053
   41   -0.7932
   42   -0.7825
   43   -0.7657
   44   -0.7427
   45   -0.7338
   46   -0.7200
   47   -0.6941
   48   -0.6839
   49   -0.6787
   50   -0.6720
   51   -0.6678
   52   -0.6547
   53   -0.6317
   54   -0.6285
   55   -0.6257
   56   -0.6143
   57   -0.5973
   58   -0.5879
   59   -0.5874
   60   -0.5820
   61   -0.5780
   62   -0.5700
   63   -0.5604
   64   -0.5500
   65   -0.5411
   66   -0.5319
   67   -0.5222
   68   -0.5197
   69   -0.5084
   70   -0.5020
   71   -0.4470
   72   -0.4390
   73   -0.4376
   74   -0.4321
   75   -0.4280
   76   -0.4214
   77   -0.4194
   78   -0.4078
   79   -0.3960
   80   -0.3891
   81    0.0230
   82    0.0303
   83    0.0379
   84    0.0431
   85    0.0490
   86    0.0527
   87    0.0553
   88    0.0574
   89    0.0614
   90    0.0715

                       ROHF Final Molecular Orbital Analysis
                       -------------------------------------

 Vector   22  Occ=2.000000D+00  E=-1.405856D+00
              MO Center=  2.7D+00,  2.6D-01,  2.8D-01, r^2= 3.1D+00
   Bfn.  Coefficient  Atom+Function         Bfn.  Coefficient  Atom+Function  
  ----- ------------  ---------------      ----- ------------  ---------------
   631      0.350970  37 O  s               630      0.326479  37 O  s         
   605      0.234270  36 C  s         

 Vector   23  Occ=2.000000D+00  E=-1.403572D+00
              MO Center= -8.8D-01,  3.1D+00,  4.3D-01, r^2= 2.3D+00
   Bfn.  Coefficient  Atom+Function         Bfn.  Coefficient  Atom+Function  
  ----- ------------  ---------------      ----- ------------  ---------------
   538      0.361273  32 O  s               537      0.338159  32 O  s         
   512      0.238381  31 C  s         

 Vector   24  Occ=2.000000D+00  E=-1.395648D+00
              MO Center= -1.4D+00, -3.2D-01, -1.4D-01, r^2= 5.8D+00
   Bfn.  Coefficient  Atom+Function         Bfn.  Coefficient  Atom+Function  
  ----- ------------  ---------------      ----- ------------  ---------------
   241      0.285742  15 O  s               240      0.266663  15 O  s         
   215      0.191883  14 C  s               334      0.172200  20 O  s         
   333      0.162715  20 O  s         

 Vector   25  Occ=2.000000D+00  E=-1.389374D+00
              MO Center= -8.8D-01, -8.3D-01, -5.1D-01, r^2= 6.1D+00
   Bfn.  Coefficient  Atom+Function         Bfn.  Coefficient  Atom+Function  
  ----- ------------  ---------------      ----- ------------  ---------------
   241      0.243338  15 O  s               334     -0.235135  20 O  s         
   240      0.223321  15 O  s               333     -0.217303  20 O  s         
   308     -0.154780  19 C  s                79     -0.151443   6 O  s         
   215      0.151959  14 C  s         

 Vector   26  Occ=2.000000D+00  E=-1.383579D+00
              MO Center=  2.2D-01, -2.5D+00, -3.4D-01, r^2= 4.1D+00
   Bfn.  Coefficient  Atom+Function         Bfn.  Coefficient  Atom+Function  
  ----- ------------  ---------------      ----- ------------  ---------------
    80      0.295696   6 O  s                79      0.290999   6 O  s         
   334     -0.221891  20 O  s               333     -0.205402  20 O  s         
    54      0.204330   5 C  s                12      0.160485   2 C  s         

 Vector   27  Occ=2.000000D+00  E=-1.255994D+00
              MO Center=  7.8D-04, -1.5D+00, -3.3D-01, r^2= 3.8D+00
   Bfn.  Coefficient  Atom+Function         Bfn.  Coefficient  Atom+Function  
  ----- ------------  ---------------      ----- ------------  ---------------
   105      0.270644   7 N  s               104      0.235559   7 N  s         
   358      0.226010  21 N  s               139     -0.223172   9 C  s         
   359      0.202226  21 N  s               334     -0.196231  20 O  s         
   309      0.176205  19 C  s                80     -0.164748   6 O  s         
   333     -0.156401  20 O  s         

 Vector   28  Occ=2.000000D+00  E=-1.244144D+00
              MO Center=  3.6D+00,  6.0D-01, -3.9D-01, r^2= 2.8D+00
   Bfn.  Coefficient  Atom+Function         Bfn.  Coefficient  Atom+Function  
  ----- ------------  ---------------      ----- ------------  ---------------
   656      0.359515  38 N  s               655      0.352759  38 N  s         
   631     -0.224257  37 O  s               630     -0.190646  37 O  s         
   679      0.164012  39 H  s               610     -0.159502  36 C  pz        

 Vector   29  Occ=2.000000D+00  E=-1.237389D+00
              MO Center=  3.5D-01, -1.2D+00, -2.6D-01, r^2= 5.0D+00
   Bfn.  Coefficient  Atom+Function         Bfn.  Coefficient  Atom+Function  
  ----- ------------  ---------------      ----- ------------  ---------------
   359      0.312735  21 N  s               105     -0.279342   7 N  s         
   358      0.253309  21 N  s               104     -0.232619   7 N  s         

 Vector   30  Occ=2.000000D+00  E=-1.234330D+00
              MO Center= -8.3D-01,  3.4D+00,  1.5D+00, r^2= 1.9D+00
   Bfn.  Coefficient  Atom+Function         Bfn.  Coefficient  Atom+Function  
  ----- ------------  ---------------      ----- ------------  ---------------
   563      0.407920  33 N  s               562      0.362179  33 N  s         
   538     -0.226290  32 O  s               517      0.212682  31 C  pz        
   537     -0.188167  32 O  s               470     -0.171613  28 C  s         
   586      0.167610  34 H  s               595      0.152848  35 H  s         

 Vector   31  Occ=2.000000D+00  E=-1.219148D+00
              MO Center= -2.5D+00,  8.6D-01, -6.6D-01, r^2= 1.7D+00
   Bfn.  Coefficient  Atom+Function         Bfn.  Coefficient  Atom+Function  
  ----- ------------  ---------------      ----- ------------  ---------------
   265      0.361502  16 N  s               266      0.345774  16 N  s         
   173     -0.262850  11 C  s               241     -0.216782  15 O  s         
   220     -0.199528  14 C  pz              217      0.186749  14 C  s         
   240     -0.182721  15 O  s               289      0.165659  17 H  s         

 Vector   32  Occ=2.000000D+00  E=-1.090004D+00
              MO Center=  5.2D-01,  6.3D-01, -3.6D-01, r^2= 5.9D+00
   Bfn.  Coefficient  Atom+Function         Bfn.  Coefficient  Atom+Function  
  ----- ------------  ---------------      ----- ------------  ---------------
   470      0.260077  28 C  s               426      0.219895  25 C  s         
   469      0.183283  28 C  s               393      0.165883  23 C  s         
   392      0.164522  23 C  s         

 Vector   33  Occ=2.000000D+00  E=-1.071984D+00
              MO Center= -1.0D+00, -9.0D-01, -2.9D-01, r^2= 6.7D+00
   Bfn.  Coefficient  Atom+Function         Bfn.  Coefficient  Atom+Function  
  ----- ------------  ---------------      ----- ------------  ---------------
   172      0.229534  11 C  s               138      0.194476   9 C  s         
   173      0.188206  11 C  s         

 Vector   34  Occ=2.000000D+00  E=-1.004215D+00
              MO Center=  5.9D-01,  6.8D-01, -5.1D-03, r^2= 7.6D+00
   Bfn.  Coefficient  Atom+Function         Bfn.  Coefficient  Atom+Function  
  ----- ------------  ---------------      ----- ------------  ---------------
   470      0.300564  28 C  s               469      0.218489  28 C  s         
   392     -0.210103  23 C  s               393     -0.162949  23 C  s         

 Vector   35  Occ=2.000000D+00  E=-9.982846D-01
              MO Center= -4.7D-02, -2.4D+00,  1.5D+00, r^2= 6.7D+00
   Bfn.  Coefficient  Atom+Function         Bfn.  Coefficient  Atom+Function  
  ----- ------------  ---------------      ----- ------------  ---------------
    11      0.311333   2 C  s               173      0.274435  11 C  s         
   174      0.209404  11 C  s                59      0.162139   5 C  pz        
    12      0.156653   2 C  s         

 Vector   36  Occ=2.000000D+00  E=-9.236060D-01
              MO Center= -1.1D+00, -1.0D+00, -3.6D-01, r^2= 6.8D+00
   Bfn.  Coefficient  Atom+Function         Bfn.  Coefficient  Atom+Function  
  ----- ------------  ---------------      ----- ------------  ---------------
   173      0.290351  11 C  s               138     -0.215162   9 C  s         
   179      0.193469  11 C  py              172      0.164985  11 C  s         

 Vector   37  Occ=2.000000D+00  E=-8.892458D-01
              MO Center=  1.1D+00,  1.5D+00, -1.9D-01, r^2= 6.7D+00
   Bfn.  Coefficient  Atom+Function         Bfn.  Coefficient  Atom+Function  
  ----- ------------  ---------------      ----- ------------  ---------------
   426     -0.234200  25 C  s               398      0.223241  23 C  px        
   470      0.217957  28 C  s         

 Vector   38  Occ=2.000000D+00  E=-8.338314D-01
              MO Center=  1.4D+00, -9.4D-02, -5.0D-01, r^2= 9.2D+00
   Bfn.  Coefficient  Atom+Function         Bfn.  Coefficient  Atom+Function  
  ----- ------------  ---------------      ----- ------------  ---------------
   658      0.227181  38 N  px              605     -0.170346  36 C  s         
   173     -0.155341  11 C  s         

 Vector   39  Occ=2.000000D+00  E=-8.129813D-01
              MO Center= -3.7D-03,  1.8D+00,  5.9D-01, r^2= 9.7D+00
   Bfn.  Coefficient  Atom+Function         Bfn.  Coefficient  Atom+Function  
  ----- ------------  ---------------      ----- ------------  ---------------
   567      0.262747  33 N  pz              512     -0.179959  31 C  s         
   513     -0.175917  31 C  s               586      0.172287  34 H  s         

 Vector   40  Occ=2.000000D+00  E=-8.052935D-01
              MO Center= -2.6D-01, -1.3D+00,  3.3D-01, r^2= 7.9D+00
   Bfn.  Coefficient  Atom+Function         Bfn.  Coefficient  Atom+Function  
  ----- ------------  ---------------      ----- ------------  ---------------
   139      0.249138   9 C  s               128     -0.229333   8 H  s         
   107      0.220324   7 N  px              108     -0.197532   7 N  py        
   309     -0.190448  19 C  s               105     -0.175006   7 N  s         
    54      0.164336   5 C  s         

 Vector   41  Occ=2.000000D+00  E=-7.931790D-01
              MO Center= -1.8D+00,  4.2D-02, -4.2D-01, r^2= 7.0D+00
   Bfn.  Coefficient  Atom+Function         Bfn.  Coefficient  Atom+Function  
  ----- ------------  ---------------      ----- ------------  ---------------
   217      0.227199  14 C  s               269      0.223457  16 N  py        
   215     -0.200900  14 C  s               270     -0.201133  16 N  pz        
   289      0.183301  17 H  s               309      0.169155  19 C  s         
   216     -0.153321  14 C  s         

 Vector   42  Occ=2.000000D+00  E=-7.825189D-01
              MO Center=  8.0D-01,  8.4D-01, -1.5D-01, r^2= 7.9D+00
   Bfn.  Coefficient  Atom+Function         Bfn.  Coefficient  Atom+Function  
  ----- ------------  ---------------      ----- ------------  ---------------
   309      0.294001  19 C  s               363     -0.251199  21 N  pz        
   382     -0.239541  22 H  s               417      0.208234  24 H  s         
   606     -0.205441  36 C  s               567      0.194734  33 N  pz        
   359     -0.191055  21 N  s               586      0.169515  34 H  s         
   393      0.161915  23 C  s               383     -0.150967  22 H  s         

 Vector   43  Occ=2.000000D+00  E=-7.657052D-01
              MO Center=  2.2D+00,  4.7D-01, -5.5D-01, r^2= 8.7D+00
   Bfn.  Coefficient  Atom+Function         Bfn.  Coefficient  Atom+Function  
  ----- ------------  ---------------      ----- ------------  ---------------
   660      0.294205  38 N  pz              679     -0.266067  39 H  s         
   688      0.181952  40 H  s         

 Vector   44  Occ=2.000000D+00  E=-7.427376D-01
              MO Center= -2.6D-01,  2.8D+00,  1.3D+00, r^2= 5.5D+00
   Bfn.  Coefficient  Atom+Function         Bfn.  Coefficient  Atom+Function  
  ----- ------------  ---------------      ----- ------------  ---------------
   565      0.280216  33 N  px              595     -0.279922  35 H  s         
   586      0.249095  34 H  s               566     -0.201539  33 N  py        
   470     -0.200412  28 C  s               596     -0.164299  35 H  s         
   587      0.151413  34 H  s         

 Vector   45  Occ=2.000000D+00  E=-7.337866D-01
              MO Center= -6.9D-01,  2.5D-01, -6.7D-01, r^2= 1.1D+01
   Bfn.  Coefficient  Atom+Function         Bfn.  Coefficient  Atom+Function  
  ----- ------------  ---------------      ----- ------------  ---------------
   309      0.249434  19 C  s               270      0.244101  16 N  pz        
   139     -0.216769   9 C  s               289     -0.211982  17 H  s         
   688     -0.167552  40 H  s               298      0.164633  18 H  s         

 Vector   46  Occ=2.000000D+00  E=-7.199564D-01
              MO Center= -9.6D-01, -5.5D-01, -3.4D-01, r^2= 8.7D+00
   Bfn.  Coefficient  Atom+Function         Bfn.  Coefficient  Atom+Function  
  ----- ------------  ---------------      ----- ------------  ---------------
   146      0.286138   9 C  pz              109     -0.222095   7 N  pz        
   270     -0.211816  16 N  pz               55      0.209398   5 C  s         
   289      0.189611  17 H  s               174      0.183781  11 C  s         
   298     -0.176756  18 H  s               106     -0.174896   7 N  s         
   128     -0.161084   8 H  s               105     -0.155388   7 N  s         

 Vector   47  Occ=2.000000D+00  E=-6.940821D-01
              MO Center= -7.7D-02,  7.6D-01,  1.1D-01, r^2= 1.1D+01
   Bfn.  Coefficient  Atom+Function         Bfn.  Coefficient  Atom+Function  
  ----- ------------  ---------------      ----- ------------  ---------------
   517      0.165294  31 C  pz        

 Vector   48  Occ=2.000000D+00  E=-6.838949D-01
              MO Center= -4.5D-01, -7.1D-01, -8.4D-02, r^2= 9.8D+00
   Bfn.  Coefficient  Atom+Function         Bfn.  Coefficient  Atom+Function  
  ----- ------------  ---------------      ----- ------------  ---------------
   427      0.153482  25 C  s         

 Vector   49  Occ=2.000000D+00  E=-6.786906D-01
              MO Center=  1.3D-01,  1.7D+00,  2.5D-01, r^2= 8.9D+00
   Bfn.  Coefficient  Atom+Function         Bfn.  Coefficient  Atom+Function  
  ----- ------------  ---------------      ----- ------------  ---------------
   517      0.196857  31 C  pz              538      0.195801  32 O  s         
   540     -0.174152  32 O  px        

 Vector   50  Occ=2.000000D+00  E=-6.720373D-01
              MO Center=  9.7D-01, -1.1D+00,  1.4D-01, r^2= 9.0D+00
   Bfn.  Coefficient  Atom+Function         Bfn.  Coefficient  Atom+Function  
  ----- ------------  ---------------      ----- ------------  ---------------
    84      0.188785   6 O  pz              416     -0.177193  24 H  s         
   635     -0.175536  37 O  pz              397      0.174034  23 C  pz        
    80     -0.155876   6 O  s               606      0.153477  36 C  s         
   427      0.150281  25 C  s         

 Vector   51  Occ=2.000000D+00  E=-6.677864D-01
              MO Center=  7.9D-01, -4.0D-01,  7.5D-02, r^2= 9.8D+00
   Bfn.  Coefficient  Atom+Function         Bfn.  Coefficient  Atom+Function  
  ----- ------------  ---------------      ----- ------------  ---------------
    84      0.178982   6 O  pz              460     -0.165891  27 H  s         

 Vector   52  Occ=2.000000D+00  E=-6.547184D-01
              MO Center= -6.6D-01, -1.7D-01, -1.9D-01, r^2= 8.4D+00
   Bfn.  Coefficient  Atom+Function         Bfn.  Coefficient  Atom+Function  
  ----- ------------  ---------------      ----- ------------  ---------------
   393      0.244162  23 C  s               427     -0.240065  25 C  s         
   245      0.195705  15 O  pz              241      0.152976  15 O  s         

 Vector   53  Occ=2.000000D+00  E=-6.317236D-01
              MO Center=  7.3D-01,  1.3D+00, -1.1D-02, r^2= 9.2D+00
   Bfn.  Coefficient  Atom+Function         Bfn.  Coefficient  Atom+Function  
  ----- ------------  ---------------      ----- ------------  ---------------
   399      0.250131  23 C  py              635      0.245154  37 O  pz        
   542      0.189883  32 O  pz              609      0.186928  36 C  py        
   427     -0.177816  25 C  s               538     -0.163937  32 O  s         
   517     -0.159772  31 C  pz              540      0.159676  32 O  px        

 Vector   54  Occ=2.000000D+00  E=-6.285402D-01
              MO Center= -1.5D-01, -8.7D-01, -3.9D-01, r^2= 8.9D+00
   Bfn.  Coefficient  Atom+Function         Bfn.  Coefficient  Atom+Function  
  ----- ------------  ---------------      ----- ------------  ---------------
   338      0.249888  20 O  pz              334     -0.181763  20 O  s         
   313     -0.173704  19 C  pz        

 Vector   55  Occ=2.000000D+00  E=-6.256516D-01
              MO Center= -5.7D-01,  1.2D-01, -4.2D-01, r^2= 8.7D+00
   Bfn.  Coefficient  Atom+Function         Bfn.  Coefficient  Atom+Function  
  ----- ------------  ---------------      ----- ------------  ---------------
   470      0.161817  28 C  s               175      0.157860  11 C  px        
   313      0.157072  19 C  pz              337      0.156990  20 O  py        

 Vector   56  Occ=2.000000D+00  E=-6.143465D-01
              MO Center= -3.1D-02, -2.2D+00,  1.2D+00, r^2= 7.8D+00
   Bfn.  Coefficient  Atom+Function         Bfn.  Coefficient  Atom+Function  
  ----- ------------  ---------------      ----- ------------  ---------------
   139      0.285456   9 C  s                15      0.217428   2 C  py        
    35     -0.210426   3 H  s                 1      0.179565   1 H  s         
    14      0.164978   2 C  px               82      0.160415   6 O  px        

 Vector   57  Occ=2.000000D+00  E=-5.973362D-01
              MO Center= -4.0D-01, -2.8D-01, -6.3D-03, r^2= 1.0D+01
   Bfn.  Coefficient  Atom+Function         Bfn.  Coefficient  Atom+Function  
  ----- ------------  ---------------      ----- ------------  ---------------
   427      0.299470  25 C  s               460     -0.203817  27 H  s         
   141     -0.166760   9 C  px              393     -0.166590  23 C  s         
   218      0.160551  14 C  px              243      0.159195  15 O  px        

 Vector   58  Occ=2.000000D+00  E=-5.878579D-01
              MO Center=  7.0D-01,  1.9D+00,  3.4D-01, r^2= 8.2D+00
   Bfn.  Coefficient  Atom+Function         Bfn.  Coefficient  Atom+Function  
  ----- ------------  ---------------      ----- ------------  ---------------
   542      0.302894  32 O  pz              515     -0.240308  31 C  px        
   470      0.211699  28 C  s               545      0.175643  32 O  pz        
   635     -0.173388  37 O  pz              609     -0.164211  36 C  py        

 Vector   59  Occ=2.000000D+00  E=-5.873984D-01
              MO Center=  1.4D+00,  6.2D-01, -8.0D-02, r^2= 8.6D+00
   Bfn.  Coefficient  Atom+Function         Bfn.  Coefficient  Atom+Function  
  ----- ------------  ---------------      ----- ------------  ---------------
   634      0.251071  37 O  py              610      0.219249  36 C  pz        
   460     -0.205176  27 H  s               659      0.198877  38 N  py        
   637      0.169046  37 O  py              662      0.152318  38 N  py        

 Vector   60  Occ=2.000000D+00  E=-5.820277D-01
              MO Center= -1.1D+00, -2.8D-01, -9.8D-02, r^2= 8.2D+00
   Bfn.  Coefficient  Atom+Function         Bfn.  Coefficient  Atom+Function  
  ----- ------------  ---------------      ----- ------------  ---------------
   245      0.285041  15 O  pz              139      0.249697   9 C  s         
   427      0.225567  25 C  s               173     -0.209061  11 C  s         
   220     -0.209263  14 C  pz              241      0.155591  15 O  s         

 Vector   61  Occ=2.000000D+00  E=-5.780413D-01
              MO Center= -7.6D-01, -1.1D+00, -2.3D-01, r^2= 9.4D+00
   Bfn.  Coefficient  Atom+Function         Bfn.  Coefficient  Atom+Function  
  ----- ------------  ---------------      ----- ------------  ---------------
   427      0.268345  25 C  s               173      0.243577  11 C  s         
   177     -0.219222  11 C  pz              196      0.202797  12 H  s         
   393     -0.196179  23 C  s               206     -0.189609  13 H  s         
   217      0.161790  14 C  s               205     -0.156898  13 H  s         
   338     -0.152736  20 O  pz        

 Vector   62  Occ=2.000000D+00  E=-5.700438D-01
              MO Center= -4.2D-02, -2.3D+00,  8.3D-01, r^2= 8.2D+00
   Bfn.  Coefficient  Atom+Function         Bfn.  Coefficient  Atom+Function  
  ----- ------------  ---------------      ----- ------------  ---------------
    45      0.245972   4 H  s                82      0.239479   6 O  px        
    59      0.205916   5 C  pz               83     -0.206300   6 O  py        
    16     -0.154451   2 C  pz               80      0.151700   6 O  s         

 Vector   63  Occ=2.000000D+00  E=-5.604441D-01
              MO Center= -6.0D-01,  1.9D-01,  5.3D-01, r^2= 1.2D+01
   Bfn.  Coefficient  Atom+Function         Bfn.  Coefficient  Atom+Function  
  ----- ------------  ---------------      ----- ------------  ---------------
    45      0.185549   4 H  s                44      0.180787   4 H  s         
   243      0.162419  15 O  px              516      0.157210  31 C  py        

 Vector   64  Occ=2.000000D+00  E=-5.500428D-01
              MO Center=  2.9D-02, -1.3D+00,  3.3D-01, r^2= 9.8D+00
   Bfn.  Coefficient  Atom+Function         Bfn.  Coefficient  Atom+Function  
  ----- ------------  ---------------      ----- ------------  ---------------
    14      0.219868   2 C  px              427     -0.209744  25 C  s         
   173     -0.186122  11 C  s                44      0.169643   4 H  s         
    56     -0.159834   5 C  s                45      0.154433   4 H  s         
    35     -0.153139   3 H  s                12     -0.150660   2 C  s         

 Vector   65  Occ=2.000000D+00  E=-5.411001D-01
              MO Center= -1.5D+00, -1.1D+00, -3.8D-01, r^2= 7.7D+00
   Bfn.  Coefficient  Atom+Function         Bfn.  Coefficient  Atom+Function  
  ----- ------------  ---------------      ----- ------------  ---------------
   217      0.297824  14 C  s               173     -0.289224  11 C  s         
   139      0.267275   9 C  s               205     -0.256510  13 H  s         
   197      0.253536  12 H  s               177     -0.200956  11 C  pz        
   310     -0.196750  19 C  s               176      0.192400  11 C  py        
   196      0.170049  12 H  s               460      0.161688  27 H  s         

 Vector   66  Occ=2.000000D+00  E=-5.318831D-01
              MO Center= -2.9D-01, -3.5D-02, -1.9D-01, r^2= 9.4D+00
   Bfn.  Coefficient  Atom+Function         Bfn.  Coefficient  Atom+Function  
  ----- ------------  ---------------      ----- ------------  ---------------
   460      0.197020  27 H  s               243     -0.185778  15 O  px        
   175      0.172478  11 C  px              429     -0.165094  25 C  px        

 Vector   67  Occ=2.000000D+00  E=-5.222013D-01
              MO Center=  5.5D-02,  4.3D-01, -2.5D-01, r^2= 8.6D+00
   Bfn.  Coefficient  Atom+Function         Bfn.  Coefficient  Atom+Function  
  ----- ------------  ---------------      ----- ------------  ---------------
   470      0.316986  28 C  s               459      0.213668  27 H  s         
   513     -0.212632  31 C  s               175     -0.184346  11 C  px        
   431     -0.184516  25 C  pz              494     -0.182029  29 H  s         
   502      0.181715  30 H  s               173      0.177522  11 C  s         
   141      0.165144   9 C  px              474      0.159317  28 C  pz        

 Vector   68  Occ=2.000000D+00  E=-5.196589D-01
              MO Center=  4.7D-02, -2.2D+00,  7.6D-01, r^2= 7.5D+00
   Bfn.  Coefficient  Atom+Function         Bfn.  Coefficient  Atom+Function  
  ----- ------------  ---------------      ----- ------------  ---------------
    83      0.217285   6 O  py              139      0.211541   9 C  s         
   173     -0.201494  11 C  s                15     -0.198868   2 C  py        
     1     -0.197213   1 H  s                36      0.171897   3 H  s         
    35      0.167858   3 H  s                 2     -0.160392   1 H  s         
    86      0.154793   6 O  py        

 Vector   69  Occ=2.000000D+00  E=-5.083953D-01
              MO Center=  7.3D-01,  1.7D+00, -1.4D-01, r^2= 4.1D+00
   Bfn.  Coefficient  Atom+Function         Bfn.  Coefficient  Atom+Function  
  ----- ------------  ---------------      ----- ------------  ---------------
   417      0.347442  24 H  s               460      0.288602  27 H  s         
   503      0.278361  30 H  s               450     -0.248658  26 H  s         
   493     -0.238621  29 H  s               474     -0.234189  28 C  pz        
   431      0.218687  25 C  pz              434      0.218582  25 C  pz        
   399      0.210327  23 C  py              451     -0.202557  26 H  s         

 Vector   70  Occ=2.000000D+00  E=-5.019937D-01
              MO Center=  2.8D-01,  4.5D-01, -7.4D-01, r^2= 7.1D+00
   Bfn.  Coefficient  Atom+Function         Bfn.  Coefficient  Atom+Function  
  ----- ------------  ---------------      ----- ------------  ---------------
   399      0.206516  23 C  py              430     -0.193277  25 C  py        
   337     -0.181839  20 O  py              606      0.169879  36 C  s         
   494     -0.167818  29 H  s               502      0.166455  30 H  s         
   451     -0.164106  26 H  s               503      0.164208  30 H  s         
   178      0.155697  11 C  px              474      0.153522  28 C  pz        

 Vector   71  Occ=2.000000D+00  E=-4.469674D-01
              MO Center=  6.8D-02, -1.3D+00, -1.0D+00, r^2= 6.4D+00
   Bfn.  Coefficient  Atom+Function         Bfn.  Coefficient  Atom+Function  
  ----- ------------  ---------------      ----- ------------  ---------------
   336      0.373843  20 O  px              339      0.299721  20 O  px        
    82     -0.195274   6 O  px              139      0.186329   9 C  s         
   337      0.176253  20 O  py               83     -0.161122   6 O  py        

 Vector   72  Occ=2.000000D+00  E=-4.389680D-01
              MO Center=  2.2D+00,  3.6D-01,  1.1D-01, r^2= 5.7D+00
   Bfn.  Coefficient  Atom+Function         Bfn.  Coefficient  Atom+Function  
  ----- ------------  ---------------      ----- ------------  ---------------
   633      0.468885  37 O  px              636      0.391525  37 O  px        
   606      0.347870  36 C  s               393     -0.326919  23 C  s         
   611     -0.299516  36 C  px              470     -0.281598  28 C  s         
   139      0.278450   9 C  s               513      0.247721  31 C  s         
   623      0.237616  36 C  dxx             460      0.214602  27 H  s         

 Vector   73  Occ=2.000000D+00  E=-4.376153D-01
              MO Center=  1.5D-01,  2.1D+00,  1.5D-01, r^2= 8.2D+00
   Bfn.  Coefficient  Atom+Function         Bfn.  Coefficient  Atom+Function  
  ----- ------------  ---------------      ----- ------------  ---------------
   541     -0.278021  32 O  py              470      0.272433  28 C  s         
   542     -0.248408  32 O  pz              513     -0.241431  31 C  s         
   393     -0.225166  23 C  s               540      0.224658  32 O  px        
   544     -0.224080  32 O  py              545     -0.209561  32 O  pz        
   427      0.205906  25 C  s               563      0.182661  33 N  s         

 Vector   74  Occ=2.000000D+00  E=-4.321367D-01
              MO Center=  1.6D+00,  9.6D-01,  2.2D-01, r^2= 1.0D+01
   Bfn.  Coefficient  Atom+Function         Bfn.  Coefficient  Atom+Function  
  ----- ------------  ---------------      ----- ------------  ---------------
   634      0.300859  37 O  py              659     -0.292552  38 N  py        
   662     -0.246346  38 N  py              637      0.242149  37 O  py        
   244     -0.193824  15 O  py              541      0.185977  32 O  py        
   267      0.178183  16 N  s               247     -0.154756  15 O  py        
   544      0.150018  32 O  py        

 Vector   75  Occ=2.000000D+00  E=-4.280295D-01
              MO Center= -8.0D-01,  1.5D+00,  5.4D-01, r^2= 9.4D+00
   Bfn.  Coefficient  Atom+Function         Bfn.  Coefficient  Atom+Function  
  ----- ------------  ---------------      ----- ------------  ---------------
   244      0.338629  15 O  py              247      0.269434  15 O  py        
   540     -0.237079  32 O  px              566      0.201906  33 N  py        
   543     -0.188811  32 O  px              542      0.172499  32 O  pz        
   569      0.170151  33 N  py              222     -0.158915  14 C  py        
   659     -0.156734  38 N  py        

 Vector   76  Occ=2.000000D+00  E=-4.213529D-01
              MO Center= -1.3D+00,  1.4D+00,  7.7D-01, r^2= 9.1D+00
   Bfn.  Coefficient  Atom+Function         Bfn.  Coefficient  Atom+Function  
  ----- ------------  ---------------      ----- ------------  ---------------
   244      0.300150  15 O  py              566     -0.246672  33 N  py        
   247      0.242598  15 O  py              541      0.228248  32 O  py        
   569     -0.215876  33 N  py              565     -0.201235  33 N  px        
   540      0.194224  32 O  px              544      0.189112  32 O  py        
   222     -0.187083  14 C  py              568     -0.171254  33 N  px        

 Vector   77  Occ=2.000000D+00  E=-4.194021D-01
              MO Center=  2.0D-01, -2.9D+00,  5.6D-01, r^2= 5.2D+00
   Bfn.  Coefficient  Atom+Function         Bfn.  Coefficient  Atom+Function  
  ----- ------------  ---------------      ----- ------------  ---------------
    84      0.411343   6 O  pz               87      0.321033   6 O  pz        
    83     -0.240838   6 O  py               16      0.209102   2 C  pz        
    19      0.203808   2 C  pz               86     -0.199666   6 O  py        
    13      0.195883   2 C  s               105      0.193616   7 N  s         
    82      0.184743   6 O  px              174      0.176612  11 C  s         

 Vector   78  Occ=2.000000D+00  E=-4.077528D-01
              MO Center= -1.8D+00,  6.9D-01, -3.4D-01, r^2= 5.1D+00
   Bfn.  Coefficient  Atom+Function         Bfn.  Coefficient  Atom+Function  
  ----- ------------  ---------------      ----- ------------  ---------------
   268      0.388601  16 N  px              271      0.340043  16 N  px        
   243     -0.324169  15 O  px              267     -0.277636  16 N  s         
   246     -0.262818  15 O  px        

 Vector   79  Occ=2.000000D+00  E=-3.960275D-01
              MO Center= -1.5D-01, -4.7D-01, -9.4D-01, r^2= 5.5D+00
   Bfn.  Coefficient  Atom+Function         Bfn.  Coefficient  Atom+Function  
  ----- ------------  ---------------      ----- ------------  ---------------
   337      0.301055  20 O  py              361      0.253127  21 N  px        
   340      0.241839  20 O  py              139      0.240037   9 C  s         
   365     -0.228482  21 N  py              364      0.224593  21 N  px        
   362     -0.219476  21 N  py              309     -0.206111  19 C  s         
   163     -0.200272  10 H  s               268     -0.184426  16 N  px        

 Vector   80  Occ=2.000000D+00  E=-3.891078D-01
              MO Center= -2.2D-01, -1.9D+00, -4.2D-01, r^2= 4.9D+00
   Bfn.  Coefficient  Atom+Function         Bfn.  Coefficient  Atom+Function  
  ----- ------------  ---------------      ----- ------------  ---------------
   336     -0.268649  20 O  px              108      0.265089   7 N  py        
   107      0.242641   7 N  px              111      0.241585   7 N  py        
   110      0.233466   7 N  px               83     -0.221604   6 O  py        
   339     -0.219831  20 O  px              106     -0.202941   7 N  s         
    86     -0.177096   6 O  py               82     -0.167905   6 O  px        

 Vector   81  Occ=0.000000D+00  E= 2.297646D-02
              MO Center=  4.4D+00,  2.6D+00, -3.9D-01, r^2= 2.2D+01
   Bfn.  Coefficient  Atom+Function         Bfn.  Coefficient  Atom+Function  
  ----- ------------  ---------------      ----- ------------  ---------------
   657      3.280791  38 N  s               614     -2.708245  36 C  px        
   310     -2.624161  19 C  s               384     -2.449315  22 H  s         
   607     -2.006595  36 C  s               504      1.840424  30 H  s         
   690      1.715578  40 H  s               401     -1.526402  23 C  px        
   681      1.467668  39 H  s               140     -1.402569   9 C  s         

 Vector   82  Occ=0.000000D+00  E= 3.025609D-02
              MO Center=  5.5D-01,  2.8D+00,  2.6D+00, r^2= 3.2D+01
   Bfn.  Coefficient  Atom+Function         Bfn.  Coefficient  Atom+Function  
  ----- ------------  ---------------      ----- ------------  ---------------
   564      2.568912  33 N  s               479     -2.284580  28 C  py        
   588      1.945369  34 H  s               523     -1.916920  31 C  pz        
   521      1.888630  31 C  px              384     -1.606707  22 H  s         
     3      1.587372   1 H  s               614      1.588925  36 C  px        
   495     -1.537921  29 H  s               597      1.509145  35 H  s         

 Vector   83  Occ=0.000000D+00  E= 3.792869D-02
              MO Center= -2.9D+00, -2.8D+00,  8.0D-01, r^2= 2.9D+01
   Bfn.  Coefficient  Atom+Function         Bfn.  Coefficient  Atom+Function  
  ----- ------------  ---------------      ----- ------------  ---------------
   384      3.643768  22 H  s               317     -3.262769  19 C  px        
   495     -3.204115  29 H  s               207     -3.115796  13 H  s         
   217      2.860476  14 C  s                37     -2.382837   3 H  s         
   181     -2.295367  11 C  px              130      2.052516   8 H  s         
   360      1.969316  21 N  s               402     -1.779976  23 C  py        

 Vector   84  Occ=0.000000D+00  E= 4.308387D-02
              MO Center=  3.1D-01,  9.2D-01,  4.5D-01, r^2= 4.5D+01
   Bfn.  Coefficient  Atom+Function         Bfn.  Coefficient  Atom+Function  
  ----- ------------  ---------------      ----- ------------  ---------------
    65      3.545208   5 C  pz              471     -3.473938  28 C  s         
   217     -2.592495  14 C  s               452      2.119442  26 H  s         
    13     -1.958377   2 C  s                64     -1.884921   5 C  py        
   514     -1.867252  31 C  s               384      1.817417  22 H  s         
     3     -1.794761   1 H  s               140      1.681945   9 C  s         

 Vector   85  Occ=0.000000D+00  E= 4.902603D-02
              MO Center=  1.3D+00, -3.9D-01,  2.6D-02, r^2= 4.7D+01
   Bfn.  Coefficient  Atom+Function         Bfn.  Coefficient  Atom+Function  
  ----- ------------  ---------------      ----- ------------  ---------------
    56      4.270546   5 C  s               384     -4.049064  22 H  s         
   147     -3.322623   9 C  px               65     -3.257389   5 C  pz        
   428      2.733691  25 C  s               318     -2.715497  19 C  py        
   452      2.575304  26 H  s               174     -2.513396  11 C  s         
   690     -2.466042  40 H  s               198     -2.332463  12 H  s         

 Vector   86  Occ=0.000000D+00  E= 5.272629D-02
              MO Center=  1.8D+00,  3.5D+00,  2.0D-01, r^2= 3.0D+01
   Bfn.  Coefficient  Atom+Function         Bfn.  Coefficient  Atom+Function  
  ----- ------------  ---------------      ----- ------------  ---------------
   452      5.206618  26 H  s               504      4.473564  30 H  s         
   564     -3.562268  33 N  s               471      3.365065  28 C  s         
   401      3.192074  23 C  px              523      2.897851  31 C  pz        
   436     -2.855929  25 C  py              480     -2.703410  28 C  pz        
   418     -2.518169  24 H  s               478     -2.353951  28 C  px        

 Vector   87  Occ=0.000000D+00  E= 5.527658D-02
              MO Center= -1.2D+00, -7.3D-02, -1.2D-01, r^2= 4.3D+01
   Bfn.  Coefficient  Atom+Function         Bfn.  Coefficient  Atom+Function  
  ----- ------------  ---------------      ----- ------------  ---------------
   217      4.145728  14 C  s               418     -3.872465  24 H  s         
   495      3.422362  29 H  s               207      3.394609  13 H  s         
   267     -3.044748  16 N  s               198     -2.972857  12 H  s         
     3     -2.710916   1 H  s                56     -2.361872   5 C  s         
    37      2.342956   3 H  s               106      2.288570   7 N  s         

 Vector   88  Occ=0.000000D+00  E= 5.736658D-02
              MO Center= -2.8D-01,  2.9D-01,  5.0D-01, r^2= 4.8D+01
   Bfn.  Coefficient  Atom+Function         Bfn.  Coefficient  Atom+Function  
  ----- ------------  ---------------      ----- ------------  ---------------
[...]

 Vector  196  Occ=0.000000D+00  E= 4.426795D-01
              MO Center= -3.0D-01, -3.4D-01,  2.7D-01, r^2= 2.2D+01
   Bfn.  Coefficient  Atom+Function         Bfn.  Coefficient  Atom+Function  
  ----- ------------  ---------------      ----- ------------  ---------------
    56     19.919464   5 C  s               384    -14.473187  22 H  s         
   217    -11.380622  14 C  s               147    -10.617986   9 C  px        
   106     -7.916306   7 N  s               607      7.470074  36 C  s         
   318     -7.301642  19 C  py              417     -6.247632  24 H  s         
   394      6.020556  23 C  s               182      5.875710  11 C  py        

 Vector  197  Occ=0.000000D+00  E= 4.458199D-01
              MO Center=  4.6D-01, -1.2D-01,  6.3D-01, r^2= 2.3D+01
   Bfn.  Coefficient  Atom+Function         Bfn.  Coefficient  Atom+Function  
  ----- ------------  ---------------      ----- ------------  ---------------
   217     12.017575  14 C  s               564    -11.757780  33 N  s         
   384    -11.442572  22 H  s               435     11.218291  25 C  px        
   478     -9.189554  28 C  px              317      8.392619  19 C  px        
   657      8.224519  38 N  s                65     -7.877637   5 C  pz        
   318      7.719090  19 C  py              106      7.329940   7 N  s         

 Vector  198  Occ=0.000000D+00  E= 4.506029D-01
              MO Center= -2.3D-01,  1.1D+00,  1.4D-01, r^2= 2.1D+01
   Bfn.  Coefficient  Atom+Function         Bfn.  Coefficient  Atom+Function  
  ----- ------------  ---------------      ----- ------------  ---------------
    56     22.390278   5 C  s               217    -14.674064  14 C  s         
   471    -14.674085  28 C  s               564     13.008557  33 N  s         
   267     12.801360  16 N  s               607     12.572712  36 C  s         
   401    -12.096801  23 C  px              318     -9.826270  19 C  py        
   514     -8.844410  31 C  s               174     -8.163364  11 C  s         

 Vector  199  Occ=0.000000D+00  E= 4.547294D-01
              MO Center=  1.0D-01, -9.3D-01, -1.8D-02, r^2= 2.1D+01
   Bfn.  Coefficient  Atom+Function         Bfn.  Coefficient  Atom+Function  
  ----- ------------  ---------------      ----- ------------  ---------------
   147     14.678174   9 C  px              217     13.464515  14 C  s         
   318     12.730417  19 C  py              360    -11.956677  21 N  s         
   607     11.701662  36 C  s               657     -9.254199  38 N  s         
   225     -8.236096  14 C  py              174     -8.027286  11 C  s         
   182     -7.979570  11 C  py              402      7.743667  23 C  py        

 Vector  200  Occ=0.000000D+00  E= 4.571029D-01
              MO Center= -3.2D-02, -5.9D-01,  1.8D-01, r^2= 2.2D+01
   Bfn.  Coefficient  Atom+Function         Bfn.  Coefficient  Atom+Function  
  ----- ------------  ---------------      ----- ------------  ---------------
    13     17.427608   2 C  s               607    -16.772649  36 C  s         
   217     16.410515  14 C  s               657     11.632467  38 N  s         
   310    -11.554898  19 C  s               106     10.786146   7 N  s         
    56     -9.385335   5 C  s               318      8.724876  19 C  py        
   394     -8.373813  23 C  s                65     -8.139259   5 C  pz        

 Vector  201  Occ=0.000000D+00  E= 4.592306D-01
              MO Center= -3.7D-01,  7.5D-01,  3.8D-01, r^2= 2.2D+01
   Bfn.  Coefficient  Atom+Function         Bfn.  Coefficient  Atom+Function  
  ----- ------------  ---------------      ----- ------------  ---------------
   217     18.646371  14 C  s                56    -10.856127   5 C  s         
   479     -9.735025  28 C  py              514     -7.966115  31 C  s         
   523      7.958532  31 C  pz              403     -7.795288  23 C  pz        
   607     -7.765878  36 C  s               149      7.590770   9 C  pz        
   318     -7.486674  19 C  py              360      6.532949  21 N  s         

 Vector  202  Occ=0.000000D+00  E= 4.612469D-01
              MO Center= -2.8D-01,  9.1D-02, -5.3D-01, r^2= 2.1D+01
   Bfn.  Coefficient  Atom+Function         Bfn.  Coefficient  Atom+Function  
  ----- ------------  ---------------      ----- ------------  ---------------
   267     20.748356  16 N  s               217    -13.170657  14 C  s         
   106      8.204500   7 N  s               317      8.233012  19 C  px        
   310     -6.484576  19 C  s               471      6.200674  28 C  s         
   607     -6.196092  36 C  s               149     -5.720164   9 C  pz        
   276      5.346437  16 N  pz              460     -5.247773  27 H  s         

 Vector  203  Occ=0.000000D+00  E= 4.685367D-01
              MO Center= -6.5D-01, -3.5D-01,  6.9D-01, r^2= 2.1D+01
   Bfn.  Coefficient  Atom+Function         Bfn.  Coefficient  Atom+Function  
  ----- ------------  ---------------      ----- ------------  ---------------
   174     11.313474  11 C  s               367     10.484423  21 N  px        
   401     -9.890175  23 C  px              225      8.732925  14 C  py        
   564      8.321868  33 N  s                56     -8.203018   5 C  s         
   471     -7.824184  28 C  s               173      7.474120  11 C  s         
   206     -7.253528  13 H  s               480      7.250081  28 C  pz        

 Vector  204  Occ=0.000000D+00  E= 4.718389D-01
              MO Center= -3.2D-01, -3.8D-02,  6.0D-01, r^2= 2.1D+01
   Bfn.  Coefficient  Atom+Function         Bfn.  Coefficient  Atom+Function  
  ----- ------------  ---------------      ----- ------------  ---------------
   106     15.763109   7 N  s                56     13.937932   5 C  s         
   174    -11.253261  11 C  s               149    -11.039541   9 C  pz        
   217     -9.360111  14 C  s               140      8.728465   9 C  s         
   360     -8.469558  21 N  s               318      7.886433  19 C  py        
   607      7.381257  36 C  s               181     -6.814945  11 C  px        

 Vector  205  Occ=0.000000D+00  E= 4.776726D-01
              MO Center= -2.7D-01,  5.1D-01,  3.5D-01, r^2= 2.1D+01
   Bfn.  Coefficient  Atom+Function         Bfn.  Coefficient  Atom+Function  
  ----- ------------  ---------------      ----- ------------  ---------------
   267     16.038317  16 N  s               461     -9.494123  27 H  s         
   174     -9.213806  11 C  s               437     -7.778600  25 C  pz        
   471      7.229668  28 C  s               607     -6.552830  36 C  s         
   310     -6.167032  19 C  s               225     -6.010881  14 C  py        
   106      5.849821   7 N  s               226      5.038908  14 C  pz        

 Vector  206  Occ=0.000000D+00  E= 4.823743D-01
              MO Center= -2.8D-01,  3.7D-01, -6.1D-03, r^2= 2.1D+01
   Bfn.  Coefficient  Atom+Function         Bfn.  Coefficient  Atom+Function  
  ----- ------------  ---------------      ----- ------------  ---------------
   267     14.134532  16 N  s                56     12.930492   5 C  s         
   174    -12.758054  11 C  s               514     -8.870746  31 C  s         
   607      8.246434  36 C  s               147     -7.948737   9 C  px        
   470     -7.309689  28 C  s               369     -7.224507  21 N  pz        
   461     -6.466174  27 H  s               402      6.125283  23 C  py        

 Vector  207  Occ=0.000000D+00  E= 4.837174D-01
              MO Center=  7.5D-01, -5.3D-01, -1.1D-01, r^2= 2.2D+01
   Bfn.  Coefficient  Atom+Function         Bfn.  Coefficient  Atom+Function  
  ----- ------------  ---------------      ----- ------------  ---------------
   607    -18.198619  36 C  s                13     18.056596   2 C  s         
   174     14.926632  11 C  s                65    -12.890009   5 C  pz        
   401     11.195963  23 C  px              310     -9.551434  19 C  s         
   394     -9.109518  23 C  s               369     -8.545961  21 N  pz        
   206     -8.002982  13 H  s               140     -6.978816   9 C  s         

 Vector  208  Occ=0.000000D+00  E= 4.871707D-01
              MO Center=  8.8D-01, -1.4D+00,  1.2D+00, r^2= 2.2D+01
   Bfn.  Coefficient  Atom+Function         Bfn.  Coefficient  Atom+Function  
  ----- ------------  ---------------      ----- ------------  ---------------
    13     15.778333   2 C  s               384    -15.508388  22 H  s         
   495     13.751457  29 H  s               318     11.495140  19 C  py        
   317     10.691078  19 C  px              267    -10.553453  16 N  s         
     2     -9.059573   1 H  s                12      8.312620   2 C  s         
    45     -7.799570   4 H  s               607     -7.611556  36 C  s         

 Vector  209  Occ=0.000000D+00  E= 4.945932D-01
              MO Center=  5.4D-01,  4.3D-01, -2.0D-01, r^2= 2.3D+01
   Bfn.  Coefficient  Atom+Function         Bfn.  Coefficient  Atom+Function  
  ----- ------------  ---------------      ----- ------------  ---------------
   360     18.571496  21 N  s               217    -16.416081  14 C  s         
    12     10.693966   2 C  s               401     10.586690  23 C  px        
    13    -10.351523   2 C  s               402      8.286059  23 C  py        
   173     -7.993881  11 C  s               607     -7.329274  36 C  s         
   267      6.953580  16 N  s               394      6.274753  23 C  s         

 Vector  210  Occ=0.000000D+00  E= 4.980619D-01
              MO Center= -1.3D-01,  8.1D-01,  1.7D-01, r^2= 2.0D+01
   Bfn.  Coefficient  Atom+Function         Bfn.  Coefficient  Atom+Function  
  ----- ------------  ---------------      ----- ------------  ---------------
   360     11.236564  21 N  s               523     -8.910763  31 C  pz        
   173     -8.532675  11 C  s               174     -6.678642  11 C  s         
   435      6.492088  25 C  px              402     -6.394730  23 C  py        
   197      6.342116  12 H  s               564      5.947396  33 N  s         
   267     -5.911345  16 N  s               436     -5.881098  25 C  py        

 Vector  211  Occ=0.000000D+00  E= 4.991358D-01
              MO Center= -6.0D-01, -7.4D-01, -7.0D-02, r^2= 2.0D+01
   Bfn.  Coefficient  Atom+Function         Bfn.  Coefficient  Atom+Function  
  ----- ------------  ---------------      ----- ------------  ---------------
   174     33.377047  11 C  s               317     19.026941  19 C  px        
   318     18.251383  19 C  py               13     16.743238   2 C  s         
   217    -14.819920  14 C  s               173     12.683306  11 C  s         
   384    -12.679168  22 H  s               149    -11.814769   9 C  pz        
   206    -11.554482  13 H  s               197    -11.079950  12 H  s         

 Vector  212  Occ=0.000000D+00  E= 5.059206D-01
              MO Center=  2.7D-01,  5.2D-01, -7.4D-02, r^2= 2.1D+01
   Bfn.  Coefficient  Atom+Function         Bfn.  Coefficient  Atom+Function  
  ----- ------------  ---------------      ----- ------------  ---------------
   607     22.001987  36 C  s               360    -18.635468  21 N  s         
    13    -13.610089   2 C  s                56     11.224368   5 C  s         
   147     -8.246675   9 C  px              318     -8.020322  19 C  py        
   140      7.560244   9 C  s               451     -7.459753  26 H  s         
    12     -6.996457   2 C  s               401     -6.984195  23 C  px        


 center of mass
 --------------
 x =  -0.00315690 y =  -0.01451496 z =  -0.02923758

 moments of inertia (a.u.)
 ------------------
        6527.553580374141           0.000000000002           0.000000000001
           0.000000000002        5505.251233890747           0.000000000001
           0.000000000001           0.000000000001        8757.881652276179

  Mulliken analysis of the total density
  --------------------------------------

    Atom       Charge   Shell Charges
 -----------   ------   -------------------------------------------------------
    1 H    1     0.85   0.76  0.12  0.01  0.03 -0.07
    2 C    6     6.31   2.01  0.66  0.31  0.13  2.07  0.98 -0.01  0.06  0.11
    3 H    1     0.82   0.77  0.09  0.00  0.03 -0.06
    4 H    1     0.99   0.76  0.25  0.01  0.03 -0.06
    5 C    6     5.27   2.01  0.68  0.13 -0.07  1.90  0.37  0.03  0.24 -0.01
    6 O    8     8.76   2.01  0.82  1.00  0.17  2.79  1.83  0.15  0.01 -0.02
    7 N    7     7.62   2.01  0.72  0.78 -0.09  2.46  1.44  0.24  0.05  0.01
    8 H    1     0.87   0.75  0.13 -0.01  0.06 -0.05
    9 C    6     6.22   2.01  0.66 -0.01 -0.01  1.99  1.28  0.11  0.14  0.06
   10 H    1     1.10   0.78  0.29  0.01  0.03  0.00
   11 C    6     6.38   2.01  0.66  0.69 -0.09  2.06  0.84 -0.05  0.09  0.19
   12 H    1     0.88   0.78  0.15 -0.02  0.03 -0.06
   13 H    1     0.84   0.77  0.13 -0.00  0.03 -0.09
   14 C    6     4.65   2.01  0.68  0.03  0.08  1.91 -0.19 -0.00  0.24 -0.10
   15 O    8     8.88   2.01  0.81  1.03  0.19  2.81  1.88  0.14  0.02  0.00
   16 N    7     7.10   2.01  0.72  0.77 -0.18  2.47  1.24  0.05  0.04 -0.03
   17 H    1     0.98   0.76  0.20  0.00  0.05 -0.04
   18 H    1     0.92   0.72  0.22 -0.02  0.06 -0.06
   19 C    6     4.71   2.01  0.68  0.15 -0.05  1.88  0.06  0.01  0.24 -0.28
   20 O    8     8.96   2.01  0.82  1.05  0.22  2.79  1.88  0.18  0.01 -0.00
   21 N    7     7.16   2.01  0.72  0.77 -0.20  2.45  1.42 -0.08  0.05  0.02
   22 H    1     0.94   0.75  0.24 -0.04  0.06 -0.06
   23 C    6     6.28   2.01  0.66  0.29 -0.03  2.00  1.17  0.03  0.14  0.01
   24 H    1     1.25   0.78  0.41  0.03  0.03  0.01
   25 C    6     5.92   2.01  0.66  0.48  0.11  2.03  0.48 -0.04  0.09  0.10
   26 H    1     0.97   0.79  0.18  0.04  0.03 -0.08
   27 H    1     0.94   0.77  0.28 -0.07  0.03 -0.08
   28 C    6     6.94   2.01  0.66  0.91  0.04  2.05  0.83  0.10  0.09  0.26
   29 H    1     0.62   0.77  0.00 -0.11  0.03 -0.07
   30 H    1     0.78   0.78  0.06 -0.00  0.03 -0.09
   31 C    6     4.48   2.01  0.68  0.11  0.06  1.89 -0.18 -0.07  0.24 -0.26
   32 O    8     8.88   2.01  0.81  1.03  0.17  2.81  1.87  0.16  0.02 -0.00
   33 N    7     7.33   2.01  0.72  0.85 -0.08  2.47  1.26  0.08  0.04 -0.02
   34 H    1     0.97   0.76  0.20 -0.00  0.05 -0.04
   35 H    1     0.95   0.75  0.17 -0.01  0.06 -0.03
   36 C    6     4.47   2.01  0.68 -0.03  0.13  1.89 -0.23  0.03  0.23 -0.24
   37 O    8     8.82   2.01  0.82  1.04  0.16  2.79  1.87  0.13  0.01 -0.00
   38 N    7     7.24   2.01  0.72  0.82 -0.14  2.46  1.28  0.08  0.04 -0.02
   39 H    1     0.96   0.76  0.22 -0.02  0.05 -0.04
   40 H    1     0.97   0.75  0.19 -0.01  0.05 -0.02

       Multipole analysis of the density wrt the origin
       ------------------------------------------------

     L   x y z        total         open         nuclear
     -   - - -        -----         ----         -------
     0   0 0 0      0.000000      0.000000    160.000000

     1   1 0 0      0.592818      0.000000      0.000000
     1   0 1 0      1.451356      0.000000      0.000000
     1   0 0 1      0.743458      0.000000     -0.000000

     2   2 0 0    -82.066153      0.000000   2095.921730
     2   1 1 0     15.824814      0.000000     31.301772
     2   1 0 1     -4.277039      0.000000     -0.958089
     2   0 2 0    -98.135425      0.000000   2636.653002
     2   0 1 1      0.748946      0.000000    -24.211360
     2   0 0 2    -89.708186      0.000000    928.856625


 Task  times  cpu:     6888.9s     wall:     6922.7s


                                NWChem Input Module
                                -------------------


 Summary of allocated global arrays
-----------------------------------
  No active global arrays


MA_summarize_allocated_blocks: starting scan ...
MA_summarize_allocated_blocks: scan completed: 0 heap blocks, 0 stack blocks
MA usage statistics:

	allocation statistics:
					      heap	     stack
					      ----	     -----
	current number of blocks	         0	         0
	maximum number of blocks	        16	        14
	current total bytes		         0	         0
	maximum total bytes		    148504	  31456216
	maximum total K-bytes		       149	     31457
	maximum total M-bytes		         1	        32


                                     CITATION
                                     --------
                Please cite the following reference when publishing
                           results obtained with NWChem:

          E. Apra, E. J. Bylaska, W. A. de Jong, N. Govind, K. Kowalski,
       T. P. Straatsma, M. Valiev, H. J. J. van Dam, Y. Alexeev, J. Anchell,
       V. Anisimov, F. W. Aquino, R. Atta-Fynn, J. Autschbach, N. P. Bauman,
     J. C. Becca, D. E. Bernholdt, K. Bhaskaran-Nair, S. Bogatko, P. Borowski,
         J. Boschen, J. Brabec, A. Bruner, E. Cauet, Y. Chen, G. N. Chuev,
      C. J. Cramer, J. Daily, M. J. O. Deegan, T. H. Dunning Jr., M. Dupuis,
   K. G. Dyall, G. I. Fann, S. A. Fischer, A. Fonari, H. Fruchtl, L. Gagliardi,
      J. Garza, N. Gawande, S. Ghosh, K. Glaesemann, A. W. Gotz, J. Hammond,
       V. Helms, E. D. Hermes, K. Hirao, S. Hirata, M. Jacquelin, L. Jensen,
   B. G. Johnson, H. Jonsson, R. A. Kendall, M. Klemm, R. Kobayashi, V. Konkov,
      S. Krishnamoorthy, M. Krishnan, Z. Lin, R. D. Lins, R. J. Littlefield,
      A. J. Logsdail, K. Lopata, W. Ma, A. V. Marenich, J. Martin del Campo,
   D. Mejia-Rodriguez, J. E. Moore, J. M. Mullin, T. Nakajima, D. R. Nascimento,
    J. A. Nichols, P. J. Nichols, J. Nieplocha, A. Otero-de-la-Roza, B. Palmer,
    A. Panyala, T. Pirojsirikul, B. Peng, R. Peverati, J. Pittner, L. Pollack,
   R. M. Richard, P. Sadayappan, G. C. Schatz, W. A. Shelton, D. W. Silverstein,
   D. M. A. Smith, T. A. Soares, D. Song, M. Swart, H. L. Taylor, G. S. Thomas,
            V. Tipparaju, D. G. Truhlar, K. Tsemekhman, T. Van Voorhis,
      A. Vazquez-Mayagoitia, P. Verma, O. Villa, A. Vishnu, K. D. Vogiatzis,
        D. Wang, J. H. Weare, M. J. Williamson, T. L. Windus, K. Wolinski,
        A. T. Wong, Q. Wu, C. Yang, Q. Yu, M. Zacharias, Z. Zhang, Y. Zhao,
                                and R. J. Harrison
                        "NWChem: Past, present, and future
                         J. Chem. Phys. 152, 184102 (2020)
                               doi:10.1063/5.0004997

                                      AUTHORS
                                      -------
  E. Apra, E. J. Bylaska, N. Govind, K. Kowalski, M. Valiev, D. Mejia-Rodriguez,
       A. Kunitsa, N. P. Bauman, A. Panyala, W. A. de Jong, T. P. Straatsma,
   H. J. J. van Dam, D. Wang, T. L. Windus, J. Hammond, J. Autschbach, A. Woods,
    K. Bhaskaran-Nair, J. Brabec, K. Lopata, S. A. Fischer, S. Krishnamoorthy,
     M. Jacquelin, W. Ma, M. Klemm, O. Villa, Y. Chen, V. Anisimov, F. Aquino,
     S. Hirata, M. T. Hackler, E. Hermes, L. Jensen, J. E. Moore, J. C. Becca,
      V. Konjkov, T. Risthaus, M. Malagoli, A. Marenich, A. Otero-de-la-Roza,
        J. Mullin, P. Nichols, R. Peverati, J. Pittner, Y. Zhao, P.-D. Fan,
        A. Fonari, M. J. Williamson, R. J. Harrison, J. R. Rehr, M. Dupuis,
     D. Silverstein, D. M. A. Smith, J. Nieplocha, V. Tipparaju, M. Krishnan,
     B. E. Van Kuiken, A. Vazquez-Mayagoitia, M. Swart, Q. Wu, T. Van Voorhis,
     A. A. Auer, M. Nooijen, L. D. Crosby, E. Brown, G. Cisneros, G. I. Fann,
   H. Fruchtl, J. Garza, K. Hirao, R. A. Kendall, J. A. Nichols, K. Tsemekhman,
    K. Wolinski, J. Anchell, D. E. Bernholdt, P. Borowski, T. Clark, D. Clerc,
   H. Dachsel, M. J. O. Deegan, K. Dyall, D. Elwood, E. Glendening, M. Gutowski,
   A. C. Hess, J. Jaffe, B. G. Johnson, J. Ju, R. Kobayashi, R. Kutteh, Z. Lin,
   R. Littlefield, X. Long, B. Meng, T. Nakajima, S. Niu, L. Pollack, M. Rosing,
   K. Glaesemann, G. Sandrone, M. Stave, H. Taylor, G. Thomas, J. H. van Lenthe,
                               A. T. Wong, Z. Zhang.

 Total times  cpu:     6888.9s     wall:     6923.2s
