export TMOUT=5400
export TMPDIR=/tmp
export PTMPDIR=/tmp/ptmp
 argument  1 = inputs/ASN_GLN_5.nw



============================== echo of input deck ==============================
start ASN_GLN_5
geometry
H         15.12700        5.88600       -8.72600
C         15.19600        5.13400       -9.51000
H         14.35400        4.44700       -9.44400
H         16.12800        4.58100       -9.40100
C         15.18700        5.81400      -10.85800
O         16.14800        5.71900      -11.60800
N         14.10700        6.52900      -11.16500
H         13.36200        6.58900      -10.48600
C         13.94000        7.26800      -12.42600
H         14.26900        6.62800      -13.24700
C         12.44000        7.57200      -12.59900
H         12.26100        7.92100      -13.61600
H         11.85300        6.66700      -12.44700
C         11.97200        8.63300      -11.61700
O         11.77000        8.37900      -10.44000
N         11.86300        9.86800      -12.04500
H         12.18700       10.09900      -12.97100
H         11.61500       10.57500      -11.37300
C         14.76700        8.57500      -12.51500
O         14.57100        9.36000      -13.44100
N         15.58200        8.87000      -11.50000
H         15.76300        8.14800      -10.81600
C         16.19600       10.17400      -11.23900
H         16.61400       10.56300      -12.16800
C         15.12400       11.16000      -10.72500
H         15.58800       12.13100      -10.54500
H         14.38100       11.29800      -11.51200
C         14.40200       10.70700       -9.44100
H         14.11400        9.65900       -9.52000
H         15.07200       10.80700       -8.58700
C         13.14700       11.53200       -9.17600
O         13.18300       12.74000       -9.03900
N         11.98100       10.92500       -9.10700
H         11.90700        9.92100       -9.24900
H         11.19900       11.50000       -8.84800
C         17.33300       10.02700      -10.21500
O         17.33200        9.11200       -9.39800
N         18.30000       10.93400      -10.21900
H         18.28900       11.69000      -10.88200
H         19.03900       10.83900       -9.54100
end

basis
 * library aug-cc-pvdz
end

echo

scf
 direct
end

task scf energy
================================================================================


                                         
                                         


             Northwest Computational Chemistry Package (NWChem) 7.2.0
             --------------------------------------------------------


                    Environmental Molecular Sciences Laboratory
                       Pacific Northwest National Laboratory
                                Richland, WA 99352

                              Copyright (c) 1994-2022
                       Pacific Northwest National Laboratory
                            Battelle Memorial Institute

             NWChem is an open-source computational chemistry package
                        distributed under the terms of the
                      Educational Community License (ECL) 2.0
             A copy of the license is included with this distribution
                              in the LICENSE.TXT file

                                  ACKNOWLEDGMENT
                                  --------------

            This software and its documentation were developed at the
            EMSL at Pacific Northwest National Laboratory, a multiprogram
            national laboratory, operated for the U.S. Department of Energy
            by Battelle under Contract Number DE-AC05-76RL01830. Support
            for this work was provided by the Department of Energy Office
            of Biological and Environmental Research, Office of Basic
            Energy Sciences, and the Office of Advanced Scientific Computing.


           Job information
           ---------------

    hostname        = nova21-swift-3
    program         = /opt/rit/el9/20230413/app/linux-rhel9-x86_64_v3/gcc-11.2.1/nwchem-7.2.0-oxtctbuhfuzyfaoziquq6bki22grib3g/bin/nwchem
    date            = Thu Jul 10 07:29:43 2025

    compiled        = Wed_May_17_23:46:39_2023
    source          = /tmp/root/spack-stage/spack-stage-nwchem-7.2.0-oxtctbuhfuzyfaoziquq6bki22grib3g/spack-src
    nwchem branch   = 7.2.0
    nwchem revision = d0d141fd
    ga revision     = 5.8.0
    use scalapack   = T
    input           = inputs/ASN_GLN_5.nw
    prefix          = ASN_GLN_5.
    data base       = ./ASN_GLN_5.db
    status          = startup
    nproc           =        8
    time left       =     -1s



           Memory information
           ------------------

    heap     =   26214398 doubles =    200.0 Mbytes
    stack    =   26214395 doubles =    200.0 Mbytes
    global   =   52428800 doubles =    400.0 Mbytes (distinct from heap & stack)
    total    =  104857593 doubles =    800.0 Mbytes
    verify   = yes
    hardfail = no 


           Directory information
           ---------------------

  0 permanent = .
  0 scratch   = .




                                NWChem Input Module
                                -------------------



 Scaling coordinates for geometry "geometry" by  1.889725989
 (inverse scale =  0.529177249)

 C1  symmetry detected

          ------
          auto-z
          ------
  no constraints, skipping    0.0000000000000000     
  no constraints, skipping    0.0000000000000000     


                             Geometry "geometry" -> ""
                             -------------------------

 Output coordinates in angstroms (scale by  1.889725989 to convert to a.u.)

  No.       Tag          Charge          X              Y              Z
 ---- ---------------- ---------- -------------- -------------- --------------
    1 H                    1.0000     0.61222434     2.41281552    -2.90952214
    2 C                    6.0000     0.43300903     3.36378087    -2.41105670
    3 H                    1.0000    -0.46385416     3.83280291    -2.81223462
    4 H                    1.0000     1.28836194     4.02041662    -2.56440238
    5 C                    6.0000     0.25863857     3.12756831    -0.93004908
    6 O                    8.0000     1.03990896     3.61695059    -0.12682586
    7 N                    7.0000    -0.75696048     2.35110791    -0.55918278
    8 H                    1.0000    -1.34598842     1.95538262    -1.27759323
    9 C                    6.0000    -1.06096447     2.00464211     0.83784050
   10 H                    1.0000    -0.97947130     2.90952533     1.44317282
   11 C                    6.0000    -2.51377752     1.49595169     0.89181540
   12 H                    1.0000    -2.83438649     1.43972266     1.93209382
   13 H                    1.0000    -3.17472586     2.19033262     0.37443699
   14 C                    6.0000    -2.64510265     0.12318155     0.25359535
   15 O                    8.0000    -2.65267412    -0.02731928    -0.95799088
   16 N                    7.0000    -2.67050999    -0.92577653     1.04057147
   17 H                    1.0000    -2.49981351    -0.80622967     2.02666694
   18 H                    1.0000    -2.69254172    -1.83405845     0.60758702
   19 C                    6.0000    -0.10196917     0.95905322     1.46007107
   20 O                    8.0000    -0.36492763     0.46419597     2.55464229
   21 N                    7.0000     0.92147183     0.52958240     0.71872207
   22 H                    1.0000     1.13237473     1.03490442    -0.13102532
   23 C                    6.0000     1.73885652    -0.65679005     0.98317559
   24 H                    1.0000     2.02113435    -0.66705516     2.03640864
   25 C                    6.0000     0.92150293    -1.93061923     0.67516855
   26 H                    1.0000     1.53405860    -2.80849890     0.88644998
   27 H                    1.0000     0.06780935    -1.96150205     1.35392883
   28 C                    6.0000     0.40201474    -2.02221898    -0.77289585
   29 H                    1.0000    -0.03024399    -1.07002911    -1.07945062
   30 H                    1.0000     1.22843285    -2.24764938    -1.44701026
   31 C                    6.0000    -0.66151612    -3.10456960    -0.92552043
   32 O                    8.0000    -0.44264654    -4.27022272    -0.65593203
   33 N                    7.0000    -1.86268996    -2.77089921    -1.34814493
   34 H                    1.0000    -2.09281181    -1.80179667    -1.55195905
   35 H                    1.0000    -2.49968993    -3.53040875    -1.51125933
   36 C                    6.0000     3.01959074    -0.61581871     0.13406123
   37 O                    8.0000     3.05323486    -0.00287195    -0.92795541
   38 N                    7.0000     4.07858732    -1.28642367     0.56599784
   39 H                    1.0000     4.04155092    -1.79862148     1.43058312
   40 H                    1.0000     4.91342921    -1.26401738     0.00264450

      Atomic Mass 
      ----------- 

      H                  1.007825
      C                 12.000000
      O                 15.994910
      N                 14.003070


 Effective nuclear repulsion energy (a.u.)    1884.7564759203

            Nuclear Dipole moment (a.u.) 
            ----------------------------
        X                 Y               Z
 ---------------- ---------------- ----------------
    -0.0000000000     0.0000000000     0.0000000000



                                Z-matrix (autoz)
                                -------- 

 Units are Angstrom for bonds and degrees for angles

      Type          Name      I     J     K     L     M      Value
      ----------- --------  ----- ----- ----- ----- ----- ----------
    1 Stretch                  1     2                       1.08854
    2 Stretch                  2     3                       1.08871
    3 Stretch                  2     4                       1.08918
    4 Stretch                  2     5                       1.50983
    5 Stretch                  5     6                       1.22272
    6 Stretch                  5     7                       1.33112
    7 Stretch                  7     8                       1.00979
    8 Stretch                  7     9                       1.47110
    9 Stretch                  9    10                       1.09173
   10 Stretch                  9    11                       1.54024
   11 Stretch                  9    19                       1.54923
   12 Stretch                 11    12                       1.09001
   13 Stretch                 11    13                       1.08936
   14 Stretch                 11    14                       1.51956
   15 Stretch                 14    15                       1.22092
   16 Stretch                 14    16                       1.31160
   17 Stretch                 16    17                       1.00788
   18 Stretch                 16    18                       1.00645
   19 Stretch                 19    20                       1.22968
   20 Stretch                 19    21                       1.33472
   21 Stretch                 21    22                       1.01089
   22 Stretch                 21    23                       1.46476
   23 Stretch                 23    24                       1.09045
   24 Stretch                 23    25                       1.54453
   25 Stretch                 23    36                       1.53719
   26 Stretch                 25    26                       1.09112
   27 Stretch                 25    27                       1.09108
   28 Stretch                 25    28                       1.54115
   29 Stretch                 28    29                       1.08972
   30 Stretch                 28    30                       1.09005
   31 Stretch                 28    31                       1.52508
   32 Stretch                 31    32                       1.21628
   33 Stretch                 31    33                       1.31635
   34 Stretch                 33    34                       1.01669
   35 Stretch                 33    35                       1.00460
   36 Stretch                 36    37                       1.22667
   37 Stretch                 36    38                       1.32580
   38 Stretch                 38    39                       1.00560
   39 Stretch                 38    40                       1.00739
   40 Bend                     1     2     3               110.07473
   41 Bend                     1     2     4               109.44571
   42 Bend                     1     2     5               109.36085
   43 Bend                     2     5     6               120.52826
   44 Bend                     2     5     7               116.91504
   45 Bend                     3     2     4               109.59282
   46 Bend                     3     2     5               109.49444
   47 Bend                     4     2     5               108.85159
   48 Bend                     5     7     8               118.38741
   49 Bend                     5     7     9               124.03027
   50 Bend                     6     5     7               122.54401
   51 Bend                     7     9    10               108.41619
   52 Bend                     7     9    11               107.81726
   53 Bend                     7     9    19               114.35865
   54 Bend                     8     7     9               117.56696
   55 Bend                     9    11    12               109.14246
   56 Bend                     9    11    13               110.18972
   57 Bend                     9    11    14               111.41752
   58 Bend                     9    19    20               119.78457
   59 Bend                     9    19    21               117.95202
   60 Bend                    10     9    11               108.94859
   61 Bend                    10     9    19               106.88766
   62 Bend                    11     9    19               110.29804
   63 Bend                    11    14    15               121.91682
   64 Bend                    11    14    16               118.17493
   65 Bend                    12    11    13               107.92010
   66 Bend                    12    11    14               109.19695
   67 Bend                    13    11    14               108.90109
   68 Bend                    14    16    17               119.26863
   69 Bend                    14    16    18               117.64824
   70 Bend                    15    14    16               119.78329
   71 Bend                    17    16    18               122.11801
   72 Bend                    19    21    22               117.77649
   73 Bend                    19    21    23               126.03103
   74 Bend                    20    19    21               121.93043
   75 Bend                    21    23    24               109.05402
   76 Bend                    21    23    25               109.67457
   77 Bend                    21    23    36               110.09736
   78 Bend                    22    21    23               116.11744
   79 Bend                    23    25    26               109.13848
   80 Bend                    23    25    27               108.26070
   81 Bend                    23    25    28               114.50487
   82 Bend                    23    36    37               120.95778
   83 Bend                    23    36    38               118.16779
   84 Bend                    24    23    25               108.77399
   85 Bend                    24    23    36               108.54818
   86 Bend                    25    23    36               110.65451
   87 Bend                    25    28    29               110.24880
   88 Bend                    25    28    30               109.74337
   89 Bend                    25    28    31               111.79444
   90 Bend                    26    25    27               107.21883
   91 Bend                    26    25    28               108.86611
   92 Bend                    27    25    28               108.60856
   93 Bend                    28    31    32               122.17377
   94 Bend                    28    31    33               119.24724
   95 Bend                    29    28    30               107.90668
   96 Bend                    29    28    31               108.38235
   97 Bend                    30    28    31               108.66531
   98 Bend                    31    33    34               120.83190
   99 Bend                    31    33    35               116.04595
  100 Bend                    32    31    33               118.57448
  101 Bend                    34    33    35               122.99545
  102 Bend                    36    38    39               120.55212
  103 Bend                    36    38    40               117.93738
  104 Bend                    37    36    38               120.85720
  105 Bend                    39    38    40               121.51049
  106 Torsion                  1     2     5     6         117.62943
  107 Torsion                  1     2     5     7         -61.10775
  108 Torsion                  2     5     7     8           0.68214
  109 Torsion                  2     5     7     9         179.21940
  110 Torsion                  3     2     5     6        -121.68416
  111 Torsion                  3     2     5     7          59.57866
  112 Torsion                  4     2     5     6          -1.89831
  113 Torsion                  4     2     5     7         179.36451
  114 Torsion                  5     7     9    10          44.30015
  115 Torsion                  5     7     9    11         162.10781
  116 Torsion                  5     7     9    19         -74.83341
  117 Torsion                  6     5     7     8        -178.02747
  118 Torsion                  6     5     7     9           0.50979
  119 Torsion                  7     9    11    12        -167.74790
  120 Torsion                  7     9    11    13         -49.41043
  121 Torsion                  7     9    11    14          71.58598
  122 Torsion                  7     9    19    20        -170.32458
  123 Torsion                  7     9    19    21           3.17867
  124 Torsion                  8     7     9    10        -137.15150
  125 Torsion                  8     7     9    11         -19.34384
  126 Torsion                  8     7     9    19         103.71494
  127 Torsion                  9    11    14    15         -76.73835
  128 Torsion                  9    11    14    16          99.18654
  129 Torsion                  9    19    21    22          12.06806
  130 Torsion                  9    19    21    23        -164.64704
  131 Torsion                 10     9    11    12         -50.28407
  132 Torsion                 10     9    11    13          68.05339
  133 Torsion                 10     9    11    14        -170.95020
  134 Torsion                 10     9    19    20          69.68428
  135 Torsion                 10     9    19    21        -116.81247
  136 Torsion                 11     9    19    20         -48.61724
  137 Torsion                 11     9    19    21         124.88601
  138 Torsion                 11    14    16    17          -6.80187
  139 Torsion                 11    14    16    18        -175.80451
  140 Torsion                 12    11     9    19          66.74626
  141 Torsion                 12    11    14    15         162.62749
  142 Torsion                 12    11    14    16         -21.44762
  143 Torsion                 13    11     9    19        -174.91628
  144 Torsion                 13    11    14    15          45.00839
  145 Torsion                 13    11    14    16        -139.06672
  146 Torsion                 14    11     9    19         -53.91987
  147 Torsion                 15    14    16    17         169.21282
  148 Torsion                 15    14    16    18           0.21018
  149 Torsion                 19    21    23    24         -46.41577
  150 Torsion                 19    21    23    25          72.60281
  151 Torsion                 19    21    23    36        -165.41091
  152 Torsion                 20    19    21    22        -174.57639
  153 Torsion                 20    19    21    23           8.70851
  154 Torsion                 21    23    25    26        -179.32319
  155 Torsion                 21    23    25    27         -62.93418
  156 Torsion                 21    23    25    28          58.37728
  157 Torsion                 21    23    36    37         -26.21804
  158 Torsion                 21    23    36    38         155.27978
  159 Torsion                 22    21    23    24         136.82108
  160 Torsion                 22    21    23    25        -104.16034
  161 Torsion                 22    21    23    36          17.82594
  162 Torsion                 23    25    28    29         -45.51643
  163 Torsion                 23    25    28    30          73.20740
  164 Torsion                 23    25    28    31        -166.14774
  165 Torsion                 23    36    38    39          -0.57905
  166 Torsion                 23    36    38    40         179.45735
  167 Torsion                 24    23    25    26         -60.13225
  168 Torsion                 24    23    25    27          56.25676
  169 Torsion                 24    23    25    28         177.56822
  170 Torsion                 24    23    36    37        -145.52195
  171 Torsion                 24    23    36    38          35.97586
  172 Torsion                 25    23    36    37          95.18546
  173 Torsion                 25    23    36    38         -83.31673
  174 Torsion                 25    28    31    32         -58.58469
  175 Torsion                 25    28    31    33         120.63172
  176 Torsion                 26    25    23    36          59.02403
  177 Torsion                 26    25    28    29        -167.96391
  178 Torsion                 26    25    28    30         -49.24009
  179 Torsion                 26    25    28    31          71.40478
  180 Torsion                 27    25    23    36         175.41303
  181 Torsion                 27    25    28    29          75.60369
  182 Torsion                 27    25    28    30        -165.67248
  183 Torsion                 27    25    28    31         -45.02762
  184 Torsion                 28    25    23    36         -63.27550
  185 Torsion                 28    31    33    34          -1.40902
  186 Torsion                 28    31    33    35         174.61879
  187 Torsion                 29    28    31    32         179.70255
  188 Torsion                 29    28    31    33          -1.08104
  189 Torsion                 30    28    31    32          62.68619
  190 Torsion                 30    28    31    33        -118.09740
  191 Torsion                 32    31    33    34         177.83573
  192 Torsion                 32    31    33    35          -6.13646
  193 Torsion                 37    36    38    39        -179.08281
  194 Torsion                 37    36    38    40           0.95359


            XYZ format geometry
            -------------------
    40
 geometry
 H                     0.61222434     2.41281552    -2.90952214
 C                     0.43300903     3.36378087    -2.41105670
 H                    -0.46385416     3.83280291    -2.81223462
 H                     1.28836194     4.02041662    -2.56440238
 C                     0.25863857     3.12756831    -0.93004908
 O                     1.03990896     3.61695059    -0.12682586
 N                    -0.75696048     2.35110791    -0.55918278
 H                    -1.34598842     1.95538262    -1.27759323
 C                    -1.06096447     2.00464211     0.83784050
 H                    -0.97947130     2.90952533     1.44317282
 C                    -2.51377752     1.49595169     0.89181540
 H                    -2.83438649     1.43972266     1.93209382
 H                    -3.17472586     2.19033262     0.37443699
 C                    -2.64510265     0.12318155     0.25359535
 O                    -2.65267412    -0.02731928    -0.95799088
 N                    -2.67050999    -0.92577653     1.04057147
 H                    -2.49981351    -0.80622967     2.02666694
 H                    -2.69254172    -1.83405845     0.60758702
 C                    -0.10196917     0.95905322     1.46007107
 O                    -0.36492763     0.46419597     2.55464229
 N                     0.92147183     0.52958240     0.71872207
 H                     1.13237473     1.03490442    -0.13102532
 C                     1.73885652    -0.65679005     0.98317559
 H                     2.02113435    -0.66705516     2.03640864
 C                     0.92150293    -1.93061923     0.67516855
 H                     1.53405860    -2.80849890     0.88644998
 H                     0.06780935    -1.96150205     1.35392883
 C                     0.40201474    -2.02221898    -0.77289585
 H                    -0.03024399    -1.07002911    -1.07945062
 H                     1.22843285    -2.24764938    -1.44701026
 C                    -0.66151612    -3.10456960    -0.92552043
 O                    -0.44264654    -4.27022272    -0.65593203
 N                    -1.86268996    -2.77089921    -1.34814493
 H                    -2.09281181    -1.80179667    -1.55195905
 H                    -2.49968993    -3.53040875    -1.51125933
 C                     3.01959074    -0.61581871     0.13406123
 O                     3.05323486    -0.00287195    -0.92795541
 N                     4.07858732    -1.28642367     0.56599784
 H                     4.04155092    -1.79862148     1.43058312
 H                     4.91342921    -1.26401738     0.00264450

 ==============================================================================
                                internuclear distances
 ------------------------------------------------------------------------------
       center one      |      center two      | atomic units |  angstroms
 ------------------------------------------------------------------------------
    2 C                |   1 H                |     2.05704  |     1.08854
    3 H                |   2 C                |     2.05736  |     1.08871
    4 H                |   2 C                |     2.05825  |     1.08918
    5 C                |   2 C                |     2.85316  |     1.50983
    6 O                |   5 C                |     2.31061  |     1.22272
    7 N                |   5 C                |     2.51545  |     1.33112
    8 H                |   7 N                |     1.90822  |     1.00979
    9 C                |   7 N                |     2.77997  |     1.47110
   10 H                |   9 C                |     2.06308  |     1.09173
   11 C                |   9 C                |     2.91064  |     1.54024
   12 H                |  11 C                |     2.05983  |     1.09001
   13 H                |  11 C                |     2.05859  |     1.08936
   14 C                |  11 C                |     2.87156  |     1.51956
   15 O                |  14 C                |     2.30721  |     1.22092
   16 N                |  14 C                |     2.47856  |     1.31160
   17 H                |  16 N                |     1.90461  |     1.00788
   18 H                |  16 N                |     1.90191  |     1.00645
   19 C                |   9 C                |     2.92761  |     1.54923
   20 O                |  19 C                |     2.32376  |     1.22968
   21 N                |  19 C                |     2.52225  |     1.33472
   22 H                |  21 N                |     1.91031  |     1.01089
   23 C                |  21 N                |     2.76800  |     1.46476
   24 H                |  23 C                |     2.06066  |     1.09045
   25 C                |  23 C                |     2.91874  |     1.54453
   26 H                |  25 C                |     2.06191  |     1.09112
   27 H                |  25 C                |     2.06185  |     1.09108
   28 C                |  25 C                |     2.91235  |     1.54115
   29 H                |  28 C                |     2.05927  |     1.08972
   30 H                |  28 C                |     2.05990  |     1.09005
   31 C                |  28 C                |     2.88199  |     1.52508
   32 O                |  31 C                |     2.29843  |     1.21628
   33 N                |  31 C                |     2.48753  |     1.31635
   34 H                |  33 N                |     1.92126  |     1.01669
   35 H                |  33 N                |     1.89843  |     1.00460
   36 C                |  23 C                |     2.90487  |     1.53719
   37 O                |  36 C                |     2.31807  |     1.22667
   38 N                |  36 C                |     2.50540  |     1.32580
   39 H                |  38 N                |     1.90030  |     1.00560
   40 H                |  38 N                |     1.90369  |     1.00739
 ------------------------------------------------------------------------------
                         number of included internuclear distances:         39
 ==============================================================================



 ==============================================================================
                                 internuclear angles
 ------------------------------------------------------------------------------
        center 1       |       center 2       |       center 3       |  degrees
 ------------------------------------------------------------------------------
    1 H                |   2 C                |   3 H                |   110.07
    1 H                |   2 C                |   4 H                |   109.45
    1 H                |   2 C                |   5 C                |   109.36
    3 H                |   2 C                |   4 H                |   109.59
    3 H                |   2 C                |   5 C                |   109.49
    4 H                |   2 C                |   5 C                |   108.85
    2 C                |   5 C                |   6 O                |   120.53
    2 C                |   5 C                |   7 N                |   116.92
    6 O                |   5 C                |   7 N                |   122.54
    5 C                |   7 N                |   8 H                |   118.39
    5 C                |   7 N                |   9 C                |   124.03
    8 H                |   7 N                |   9 C                |   117.57
    7 N                |   9 C                |  10 H                |   108.42
    7 N                |   9 C                |  11 C                |   107.82
    7 N                |   9 C                |  19 C                |   114.36
   10 H                |   9 C                |  11 C                |   108.95
   10 H                |   9 C                |  19 C                |   106.89
   11 C                |   9 C                |  19 C                |   110.30
    9 C                |  11 C                |  12 H                |   109.14
    9 C                |  11 C                |  13 H                |   110.19
    9 C                |  11 C                |  14 C                |   111.42
   12 H                |  11 C                |  13 H                |   107.92
   12 H                |  11 C                |  14 C                |   109.20
   13 H                |  11 C                |  14 C                |   108.90
   11 C                |  14 C                |  15 O                |   121.92
   11 C                |  14 C                |  16 N                |   118.17
   15 O                |  14 C                |  16 N                |   119.78
   14 C                |  16 N                |  17 H                |   119.27
   14 C                |  16 N                |  18 H                |   117.65
   17 H                |  16 N                |  18 H                |   122.12
    9 C                |  19 C                |  20 O                |   119.78
    9 C                |  19 C                |  21 N                |   117.95
   20 O                |  19 C                |  21 N                |   121.93
   19 C                |  21 N                |  22 H                |   117.78
   19 C                |  21 N                |  23 C                |   126.03
   22 H                |  21 N                |  23 C                |   116.12
   21 N                |  23 C                |  24 H                |   109.05
   21 N                |  23 C                |  25 C                |   109.67
   21 N                |  23 C                |  36 C                |   110.10
   24 H                |  23 C                |  25 C                |   108.77
   24 H                |  23 C                |  36 C                |   108.55
   25 C                |  23 C                |  36 C                |   110.65
   23 C                |  25 C                |  26 H                |   109.14
   23 C                |  25 C                |  27 H                |   108.26
   23 C                |  25 C                |  28 C                |   114.50
   26 H                |  25 C                |  27 H                |   107.22
   26 H                |  25 C                |  28 C                |   108.87
   27 H                |  25 C                |  28 C                |   108.61
   25 C                |  28 C                |  29 H                |   110.25
   25 C                |  28 C                |  30 H                |   109.74
   25 C                |  28 C                |  31 C                |   111.79
   29 H                |  28 C                |  30 H                |   107.91
   29 H                |  28 C                |  31 C                |   108.38
   30 H                |  28 C                |  31 C                |   108.67
   28 C                |  31 C                |  32 O                |   122.17
   28 C                |  31 C                |  33 N                |   119.25
   32 O                |  31 C                |  33 N                |   118.57
   31 C                |  33 N                |  34 H                |   120.83
   31 C                |  33 N                |  35 H                |   116.05
   34 H                |  33 N                |  35 H                |   123.00
   23 C                |  36 C                |  37 O                |   120.96
   23 C                |  36 C                |  38 N                |   118.17
   37 O                |  36 C                |  38 N                |   120.86
   36 C                |  38 N                |  39 H                |   120.55
   36 C                |  38 N                |  40 H                |   117.94
   39 H                |  38 N                |  40 H                |   121.51
 ------------------------------------------------------------------------------
                            number of included internuclear angles:         66
 ==============================================================================



  library name resolved from: environment
  library file name is: </opt/rit/el9/20230413/app/linux-rhel9-x86_64_v3/gcc-11.2.1/nwchem-7.2.0-oxtctbuhfuzyfaoziquq6bki22grib3g/share/nwchem/libraries/>
  


 Summary of "ao basis" -> "" (cartesian)
 ------------------------------------------------------------------------------
       Tag                 Description            Shells   Functions and Types
 ---------------- ------------------------------  ------  ---------------------
 *                        aug-cc-pvdz                 on all atoms 


                      Basis "ao basis" -> "ao basis" (cartesian)
                      -----
  H (Hydrogen)
  ------------
            Exponent  Coefficients 
       -------------- ---------------------------------------------------------
  1 S  1.30100000E+01  0.019685
  1 S  1.96200000E+00  0.137977
  1 S  4.44600000E-01  0.478148

  2 S  1.22000000E-01  1.000000

  3 S  2.97400000E-02  1.000000

  4 P  7.27000000E-01  1.000000

  5 P  1.41000000E-01  1.000000

  C (Carbon)
  ----------
            Exponent  Coefficients 
       -------------- ---------------------------------------------------------
  1 S  6.66500000E+03  0.000692
  1 S  1.00000000E+03  0.005329
  1 S  2.28000000E+02  0.027077
  1 S  6.47100000E+01  0.101718
  1 S  2.10600000E+01  0.274740
  1 S  7.49500000E+00  0.448564
  1 S  2.79700000E+00  0.285074
  1 S  5.21500000E-01  0.015204

  2 S  6.66500000E+03 -0.000146
  2 S  1.00000000E+03 -0.001154
  2 S  2.28000000E+02 -0.005725
  2 S  6.47100000E+01 -0.023312
  2 S  2.10600000E+01 -0.063955
  2 S  7.49500000E+00 -0.149981
  2 S  2.79700000E+00 -0.127262
  2 S  5.21500000E-01  0.544529

  3 S  1.59600000E-01  1.000000

  4 S  4.69000000E-02  1.000000

  5 P  9.43900000E+00  0.038109
  5 P  2.00200000E+00  0.209480
  5 P  5.45600000E-01  0.508557

  6 P  1.51700000E-01  1.000000

  7 P  4.04100000E-02  1.000000

  8 D  5.50000000E-01  1.000000

  9 D  1.51000000E-01  1.000000

  O (Oxygen)
  ----------
            Exponent  Coefficients 
       -------------- ---------------------------------------------------------
  1 S  1.17200000E+04  0.000710
  1 S  1.75900000E+03  0.005470
  1 S  4.00800000E+02  0.027837
  1 S  1.13700000E+02  0.104800
  1 S  3.70300000E+01  0.283062
  1 S  1.32700000E+01  0.448719
  1 S  5.02500000E+00  0.270952
  1 S  1.01300000E+00  0.015458

  2 S  1.17200000E+04 -0.000160
  2 S  1.75900000E+03 -0.001263
  2 S  4.00800000E+02 -0.006267
  2 S  1.13700000E+02 -0.025716
  2 S  3.70300000E+01 -0.070924
  2 S  1.32700000E+01 -0.165411
  2 S  5.02500000E+00 -0.116955
  2 S  1.01300000E+00  0.557368

  3 S  3.02300000E-01  1.000000

  4 S  7.89600000E-02  1.000000

  5 P  1.77000000E+01  0.043018
  5 P  3.85400000E+00  0.228913
  5 P  1.04600000E+00  0.508728

  6 P  2.75300000E-01  1.000000

  7 P  6.85600000E-02  1.000000

  8 D  1.18500000E+00  1.000000

  9 D  3.32000000E-01  1.000000

  N (Nitrogen)
  ------------
            Exponent  Coefficients 
       -------------- ---------------------------------------------------------
  1 S  9.04600000E+03  0.000700
  1 S  1.35700000E+03  0.005389
  1 S  3.09300000E+02  0.027406
  1 S  8.77300000E+01  0.103207
  1 S  2.85600000E+01  0.278723
  1 S  1.02100000E+01  0.448540
  1 S  3.83800000E+00  0.278238
  1 S  7.46600000E-01  0.015440

  2 S  9.04600000E+03 -0.000153
  2 S  1.35700000E+03 -0.001208
  2 S  3.09300000E+02 -0.005992
  2 S  8.77300000E+01 -0.024544
  2 S  2.85600000E+01 -0.067459
  2 S  1.02100000E+01 -0.158078
  2 S  3.83800000E+00 -0.121831
  2 S  7.46600000E-01  0.549003

  3 S  2.24800000E-01  1.000000

  4 S  6.12400000E-02  1.000000

  5 P  1.35500000E+01  0.039919
  5 P  2.91700000E+00  0.217169
  5 P  7.97300000E-01  0.510319

  6 P  2.18500000E-01  1.000000

  7 P  5.61100000E-02  1.000000

  8 D  8.17000000E-01  1.000000

  9 D  2.30000000E-01  1.000000



 Summary of "ao basis" -> "ao basis" (cartesian)
 ------------------------------------------------------------------------------
       Tag                 Description            Shells   Functions and Types
 ---------------- ------------------------------  ------  ---------------------
 H                        aug-cc-pvdz                5        9   3s2p
 C                        aug-cc-pvdz                9       25   4s3p2d
 O                        aug-cc-pvdz                9       25   4s3p2d
 N                        aug-cc-pvdz                9       25   4s3p2d


                                 NWChem SCF Module
                                 -----------------



  ao basis        = "ao basis"
  functions       =   696
  atoms           =    40
  closed shells   =    80
  open shells     =     0
  charge          =   0.00
  wavefunction    = RHF 
  input vectors   = atomic
  output vectors  = ./ASN_GLN_5.movecs
  use symmetry    = F
  symmetry adapt  = F


 Summary of "ao basis" -> "ao basis" (cartesian)
 ------------------------------------------------------------------------------
       Tag                 Description            Shells   Functions and Types
 ---------------- ------------------------------  ------  ---------------------
 H                        aug-cc-pvdz                5        9   3s2p
 C                        aug-cc-pvdz                9       25   4s3p2d
 O                        aug-cc-pvdz                9       25   4s3p2d
 N                        aug-cc-pvdz                9       25   4s3p2d



 Forming initial guess at       0.9s


 !! The overlap matrix has   6 vectors deemed linearly dependent with
    eigenvalues:
 2.08D-06 3.31D-06 6.43D-06 6.86D-06 8.23D-06 9.63D-06


      Superposition of Atomic Density Guess
      -------------------------------------

 Sum of atomic energies:       -1069.17223035

      Non-variational initial energy
      ------------------------------

 Total energy =   -1082.659698
 1-e energy   =   -5203.976095
 2-e energy   =    2236.559922
 HOMO         =      -0.307168
 LUMO         =       0.006268


 Starting SCF solution at     383.9s



 ----------------------------------------------
         Quadratically convergent ROHF

 Convergence threshold     :          1.000E-04
 Maximum no. of iterations :           30
 Final Fock-matrix accuracy:          1.000E-10
 ----------------------------------------------


              iter       energy          gnorm     gmax       time
             ----- ------------------- --------- --------- --------
                 1    -1073.9051759869  2.97D+00  1.57D-01    784.5
                 2    -1074.3641645888  9.49D-01  3.91D-02   1579.6
                 3    -1074.4431970866  7.81D-02  4.32D-03   2727.2
                 4    -1074.4441151822  4.96D-03  3.91D-04   4247.3
                 5    -1074.4441195008  1.06D-05  5.32D-07   6909.7


       Final RHF  results 
       ------------------ 

         Total SCF energy =  -1074.444119500807
      One-electron energy =  -5217.928775860755
      Two-electron energy =   2258.728180439687
 Nuclear repulsion energy =   1884.756475920261

        Time for solution =   6527.5s


             Final eigenvalues
             -----------------

              1      
    1  -20.5527
    2  -20.5438
    3  -20.5415
    4  -20.5317
    5  -20.5131
    6  -15.6163
    7  -15.6113
    8  -15.6096
    9  -15.6056
   10  -15.5830
   11  -11.3822
   12  -11.3779
   13  -11.3752
   14  -11.3613
   15  -11.3466
   16  -11.3233
   17  -11.3120
   18  -11.2801
   19  -11.2558
   20  -11.2482
   21  -11.2457
   22   -1.4247
   23   -1.4081
   24   -1.4010
   25   -1.3936
   26   -1.3854
   27   -1.2656
   28   -1.2495
   29   -1.2466
   30   -1.2429
   31   -1.2161
   32   -1.0967
   33   -1.0819
   34   -1.0105
   35   -1.0018
   36   -0.9375
   37   -0.8855
   38   -0.8438
   39   -0.8188
   40   -0.8156
   41   -0.8014
   42   -0.7807
   43   -0.7722
   44   -0.7558
   45   -0.7351
   46   -0.7323
   47   -0.7054
   48   -0.6908
   49   -0.6829
   50   -0.6768
   51   -0.6714
   52   -0.6566
   53   -0.6398
   54   -0.6365
   55   -0.6226
   56   -0.6179
   57   -0.6071
   58   -0.6038
   59   -0.5944
   60   -0.5874
   61   -0.5773
   62   -0.5765
   63   -0.5699
   64   -0.5591
   65   -0.5540
   66   -0.5413
   67   -0.5311
   68   -0.5253
   69   -0.5108
   70   -0.5005
   71   -0.4580
   72   -0.4556
   73   -0.4419
   74   -0.4375
   75   -0.4326
   76   -0.4290
   77   -0.4138
   78   -0.4066
   79   -0.4042
   80   -0.3980
   81    0.0269
   82    0.0289
   83    0.0379
   84    0.0412
   85    0.0482
   86    0.0514
   87    0.0566
   88    0.0581
   89    0.0628
   90    0.0671

                       ROHF Final Molecular Orbital Analysis
                       -------------------------------------

 Vector   22  Occ=2.000000D+00  E=-1.424697D+00
              MO Center= -2.6D+00, -4.0D-02, -3.6D-01, r^2= 1.2D+00
   Bfn.  Coefficient  Atom+Function         Bfn.  Coefficient  Atom+Function  
  ----- ------------  ---------------      ----- ------------  ---------------
   241      0.375741  15 O  s               240      0.348080  15 O  s         
   215      0.244941  14 C  s         

 Vector   23  Occ=2.000000D+00  E=-1.408058D+00
              MO Center=  2.0D+00,  8.2D-02,  2.3D-01, r^2= 5.0D+00
   Bfn.  Coefficient  Atom+Function         Bfn.  Coefficient  Atom+Function  
  ----- ------------  ---------------      ----- ------------  ---------------
   631      0.305369  37 O  s               630      0.282278  37 O  s         
   605      0.203608  36 C  s               334      0.191890  20 O  s         
   333      0.175645  20 O  s         

 Vector   24  Occ=2.000000D+00  E=-1.400950D+00
              MO Center=  9.9D-01,  9.4D-01,  6.4D-01, r^2= 6.6D+00
   Bfn.  Coefficient  Atom+Function         Bfn.  Coefficient  Atom+Function  
  ----- ------------  ---------------      ----- ------------  ---------------
   334      0.250681  20 O  s               333      0.233969  20 O  s         
   631     -0.217809  37 O  s               630     -0.200353  37 O  s         
   308      0.164968  19 C  s                79      0.160978   6 O  s         
    80      0.157854   6 O  s         

 Vector   25  Occ=2.000000D+00  E=-1.393638D+00
              MO Center=  4.4D-01,  2.5D+00,  2.6D-01, r^2= 4.0D+00
   Bfn.  Coefficient  Atom+Function         Bfn.  Coefficient  Atom+Function  
  ----- ------------  ---------------      ----- ------------  ---------------
    80      0.301691   6 O  s                79      0.298053   6 O  s         
    54      0.210449   5 C  s               334     -0.209038  20 O  s         
   333     -0.191094  20 O  s                12      0.170087   2 C  s         

 Vector   26  Occ=2.000000D+00  E=-1.385408D+00
              MO Center= -6.7D-01, -3.7D+00, -8.1D-01, r^2= 8.8D-01
   Bfn.  Coefficient  Atom+Function         Bfn.  Coefficient  Atom+Function  
  ----- ------------  ---------------      ----- ------------  ---------------
   538      0.371508  32 O  s               537      0.348183  32 O  s         
   512      0.250443  31 C  s         

 Vector   27  Occ=2.000000D+00  E=-1.265637D+00
              MO Center= -8.7D-02,  1.8D+00,  1.5D-01, r^2= 3.5D+00
   Bfn.  Coefficient  Atom+Function         Bfn.  Coefficient  Atom+Function  
  ----- ------------  ---------------      ----- ------------  ---------------
   105      0.308911   7 N  s               104      0.269490   7 N  s         
   139     -0.235127   9 C  s                80     -0.189650   6 O  s         
   358      0.186465  21 N  s               359      0.174486  21 N  s         
   309      0.173348  19 C  s               334     -0.169932  20 O  s         
    79     -0.162591   6 O  s         

 Vector   28  Occ=2.000000D+00  E=-1.249522D+00
              MO Center= -2.1D+00, -3.5D-01,  6.5D-01, r^2= 3.5D+00
   Bfn.  Coefficient  Atom+Function         Bfn.  Coefficient  Atom+Function  
  ----- ------------  ---------------      ----- ------------  ---------------
   266      0.337146  16 N  s               265      0.332780  16 N  s         
   173     -0.223171  11 C  s               241     -0.211857  15 O  s         
   220      0.185833  14 C  pz              240     -0.176249  15 O  s         
   359     -0.170230  21 N  s               237      0.152046  14 C  dyz       

 Vector   29  Occ=2.000000D+00  E=-1.246577D+00
              MO Center=  4.2D-01,  4.8D-01,  4.5D-01, r^2= 6.8D+00
   Bfn.  Coefficient  Atom+Function         Bfn.  Coefficient  Atom+Function  
  ----- ------------  ---------------      ----- ------------  ---------------
   359      0.279187  21 N  s               358      0.232726  21 N  s         
   105     -0.222931   7 N  s               104     -0.174529   7 N  s         
   265      0.151844  16 N  s         

 Vector   30  Occ=2.000000D+00  E=-1.242919D+00
              MO Center=  3.2D+00, -7.3D-01,  4.0D-01, r^2= 3.9D+00
   Bfn.  Coefficient  Atom+Function         Bfn.  Coefficient  Atom+Function  
  ----- ------------  ---------------      ----- ------------  ---------------
   656      0.370634  38 N  s               655      0.345492  38 N  s         
   631     -0.179723  37 O  s               679      0.158755  39 H  s         
   359     -0.156680  21 N  s               630     -0.153548  37 O  s         

 Vector   31  Occ=2.000000D+00  E=-1.216128D+00
              MO Center= -1.5D+00, -3.0D+00, -1.2D+00, r^2= 1.3D+00
   Bfn.  Coefficient  Atom+Function         Bfn.  Coefficient  Atom+Function  
  ----- ------------  ---------------      ----- ------------  ---------------
   563      0.377128  33 N  s               562      0.366192  33 N  s         
   538     -0.232969  32 O  s               470     -0.210026  28 C  s         
   537     -0.194827  32 O  s               586      0.159940  34 H  s         
   595      0.156742  35 H  s               516      0.150403  31 C  py        

 Vector   32  Occ=2.000000D+00  E=-1.096718D+00
              MO Center= -4.5D-01,  6.6D-01,  4.1D-01, r^2= 7.0D+00
   Bfn.  Coefficient  Atom+Function         Bfn.  Coefficient  Atom+Function  
  ----- ------------  ---------------      ----- ------------  ---------------
   172      0.189872  11 C  s               138      0.178953   9 C  s         
   173      0.150883  11 C  s               426     -0.150687  25 C  s         

 Vector   33  Occ=2.000000D+00  E=-1.081892D+00
              MO Center= -1.3D-01, -3.2D-01,  3.3D-01, r^2= 7.1D+00
   Bfn.  Coefficient  Atom+Function         Bfn.  Coefficient  Atom+Function  
  ----- ------------  ---------------      ----- ------------  ---------------
   426      0.205576  25 C  s               173      0.196810  11 C  s         
   393      0.181205  23 C  s               172      0.179687  11 C  s         
   469      0.174667  28 C  s         

 Vector   34  Occ=2.000000D+00  E=-1.010483D+00
              MO Center= -2.0D-01,  2.0D+00, -1.1D+00, r^2= 8.1D+00
   Bfn.  Coefficient  Atom+Function         Bfn.  Coefficient  Atom+Function  
  ----- ------------  ---------------      ----- ------------  ---------------
   173      0.294631  11 C  s                11      0.277272   2 C  s         
   172      0.161603  11 C  s         

 Vector   35  Occ=2.000000D+00  E=-1.001797D+00
              MO Center=  8.4D-01, -2.5D-01, -3.9D-01, r^2= 8.3D+00
   Bfn.  Coefficient  Atom+Function         Bfn.  Coefficient  Atom+Function  
  ----- ------------  ---------------      ----- ------------  ---------------
   469     -0.213125  28 C  s               392      0.203817  23 C  s         
    11     -0.166539   2 C  s         

 Vector   36  Occ=2.000000D+00  E=-9.375001D-01
              MO Center= -9.3D-01,  1.2D+00,  3.1D-01, r^2= 6.9D+00
   Bfn.  Coefficient  Atom+Function         Bfn.  Coefficient  Atom+Function  
  ----- ------------  ---------------      ----- ------------  ---------------
   173      0.318151  11 C  s               138     -0.225734   9 C  s         
   179     -0.193783  11 C  py              222     -0.152342  14 C  py        

 Vector   37  Occ=2.000000D+00  E=-8.855228D-01
              MO Center=  9.7D-01, -1.5D+00,  2.0D-01, r^2= 5.7D+00
   Bfn.  Coefficient  Atom+Function         Bfn.  Coefficient  Atom+Function  
  ----- ------------  ---------------      ----- ------------  ---------------
   426      0.241285  25 C  s               470     -0.235927  28 C  s         
   398     -0.214673  23 C  px              459      0.153291  27 H  s         
   393     -0.152227  23 C  s         

 Vector   38  Occ=2.000000D+00  E=-8.437629D-01
              MO Center=  2.4D-01,  8.4D-02,  5.2D-01, r^2= 1.0D+01
   Bfn.  Coefficient  Atom+Function         Bfn.  Coefficient  Atom+Function  
  ----- ------------  ---------------      ----- ------------  ---------------
   139      0.195683   9 C  s               269      0.174322  16 N  py        
   658     -0.175134  38 N  px              393      0.154558  23 C  s         
   215      0.152205  14 C  s               173      0.150465  11 C  s         

 Vector   39  Occ=2.000000D+00  E=-8.187796D-01
              MO Center=  1.6D-02, -3.4D-01,  5.5D-01, r^2= 1.1D+01
   Bfn.  Coefficient  Atom+Function         Bfn.  Coefficient  Atom+Function  
  ----- ------------  ---------------      ----- ------------  ---------------
   269      0.185419  16 N  py              658      0.174851  38 N  px        
   270     -0.166816  16 N  pz              309     -0.156375  19 C  s         

 Vector   40  Occ=2.000000D+00  E=-8.155587D-01
              MO Center= -7.7D-01,  2.0D+00, -3.1D-01, r^2= 5.0D+00
   Bfn.  Coefficient  Atom+Function         Bfn.  Coefficient  Atom+Function  
  ----- ------------  ---------------      ----- ------------  ---------------
   107      0.260279   7 N  px              128     -0.231572   8 H  s         
   105     -0.200162   7 N  s               108      0.200846   7 N  py        
   139      0.196597   9 C  s                54      0.191647   5 C  s         
    80     -0.160749   6 O  s         

 Vector   41  Occ=2.000000D+00  E=-8.013983D-01
              MO Center= -2.1D-01, -1.3D+00, -1.3D-01, r^2= 7.8D+00
   Bfn.  Coefficient  Atom+Function         Bfn.  Coefficient  Atom+Function  
  ----- ------------  ---------------      ----- ------------  ---------------
   309      0.240782  19 C  s               565      0.234449  33 N  px        
   363      0.198271  21 N  pz              382     -0.195644  22 H  s         
   513      0.192296  31 C  s               359     -0.183327  21 N  s         
   512      0.176357  31 C  s         

 Vector   42  Occ=2.000000D+00  E=-7.806994D-01
              MO Center=  7.2D-02, -1.2D+00, -6.0D-02, r^2= 7.8D+00
   Bfn.  Coefficient  Atom+Function         Bfn.  Coefficient  Atom+Function  
  ----- ------------  ---------------      ----- ------------  ---------------
   309      0.268370  19 C  s               514      0.212198  31 C  s         
   382     -0.205350  22 H  s               363      0.202534  21 N  pz        
   606     -0.196382  36 C  s               565     -0.194499  33 N  px        
   513     -0.185542  31 C  s               417      0.183752  24 H  s         
   359     -0.175711  21 N  s               586      0.170214  34 H  s         

 Vector   43  Occ=2.000000D+00  E=-7.722278D-01
              MO Center=  8.5D-01, -3.7D-01,  6.5D-01, r^2= 1.1D+01
   Bfn.  Coefficient  Atom+Function         Bfn.  Coefficient  Atom+Function  
  ----- ------------  ---------------      ----- ------------  ---------------
   660      0.232723  38 N  pz              679      0.230770  39 H  s         
   270      0.205866  16 N  pz              309     -0.197405  19 C  s         
   289      0.178478  17 H  s               139      0.157619   9 C  s         
   608     -0.154367  36 C  px        

 Vector   44  Occ=2.000000D+00  E=-7.558472D-01
              MO Center= -3.0D-01, -7.6D-01,  7.1D-01, r^2= 1.1D+01
   Bfn.  Coefficient  Atom+Function         Bfn.  Coefficient  Atom+Function  
  ----- ------------  ---------------      ----- ------------  ---------------
   270      0.253750  16 N  pz              289      0.226131  17 H  s         
   298     -0.219481  18 H  s               660     -0.190065  38 N  pz        
   269      0.174288  16 N  py              679     -0.172247  39 H  s         
   688      0.165796  40 H  s               299     -0.159600  18 H  s         

 Vector   45  Occ=2.000000D+00  E=-7.351490D-01
              MO Center= -1.3D+00, -1.5D+00, -8.0D-01, r^2= 6.9D+00
   Bfn.  Coefficient  Atom+Function         Bfn.  Coefficient  Atom+Function  
  ----- ------------  ---------------      ----- ------------  ---------------
   566      0.318747  33 N  py              595     -0.246691  35 H  s         
   586      0.233678  34 H  s               309     -0.204720  19 C  s         
   587      0.167282  34 H  s               146      0.163556   9 C  pz        

 Vector   46  Occ=2.000000D+00  E=-7.322884D-01
              MO Center= -3.8D-02,  4.4D-01,  2.3D-01, r^2= 1.0D+01
   Bfn.  Coefficient  Atom+Function         Bfn.  Coefficient  Atom+Function  
  ----- ------------  ---------------      ----- ------------  ---------------
   146      0.270192   9 C  pz              109     -0.211705   7 N  pz        
    55     -0.173926   5 C  s               142     -0.161007   9 C  py        
   145     -0.159968   9 C  py              309     -0.156056  19 C  s         
   106      0.155221   7 N  s               514     -0.154000  31 C  s         
   688      0.152265  40 H  s               311     -0.151487  19 C  px        

 Vector   47  Occ=2.000000D+00  E=-7.053916D-01
              MO Center= -1.7D+00,  2.9D-01,  6.7D-02, r^2= 7.4D+00
   Bfn.  Coefficient  Atom+Function         Bfn.  Coefficient  Atom+Function  
  ----- ------------  ---------------      ----- ------------  ---------------
   219      0.209333  14 C  py              269     -0.194510  16 N  py        
   245      0.170001  15 O  pz              177     -0.162668  11 C  pz        
   241     -0.153471  15 O  s         

 Vector   48  Occ=2.000000D+00  E=-6.908010D-01
              MO Center=  9.4D-01,  9.7D-01, -1.3D-01, r^2= 1.1D+01
   Bfn.  Coefficient  Atom+Function         Bfn.  Coefficient  Atom+Function  
  ----- ------------  ---------------      ----- ------------  ---------------
    84      0.189210   6 O  pz              658      0.180991  38 N  px        
    19     -0.168440   2 C  pz              688      0.168956  40 H  s         
    16     -0.156083   2 C  pz               80      0.152240   6 O  s         

 Vector   49  Occ=2.000000D+00  E=-6.828740D-01
              MO Center=  7.0D-01, -1.2D+00, -2.2D-02, r^2= 8.0D+00
   Bfn.  Coefficient  Atom+Function         Bfn.  Coefficient  Atom+Function  
  ----- ------------  ---------------      ----- ------------  ---------------
   397      0.199492  23 C  pz              416      0.181512  24 H  s         
   515      0.181856  31 C  px              473     -0.155801  28 C  py        

 Vector   50  Occ=2.000000D+00  E=-6.767701D-01
              MO Center=  1.0D+00,  9.1D-01, -4.4D-01, r^2= 1.0D+01
   Bfn.  Coefficient  Atom+Function         Bfn.  Coefficient  Atom+Function  
  ----- ------------  ---------------      ----- ------------  ---------------
    84      0.215672   6 O  pz               80      0.176270   6 O  s         
   635     -0.154679  37 O  pz               16     -0.150343   2 C  pz        

 Vector   51  Occ=2.000000D+00  E=-6.714145D-01
              MO Center=  2.5D-01,  2.3D-01,  3.2D-01, r^2= 9.1D+00
   Bfn.  Coefficient  Atom+Function         Bfn.  Coefficient  Atom+Function  
  ----- ------------  ---------------      ----- ------------  ---------------
   427     -0.245298  25 C  s               393      0.229604  23 C  s         
   606     -0.212819  36 C  s               399     -0.195264  23 C  py        
   470      0.185688  28 C  s         

 Vector   52  Occ=2.000000D+00  E=-6.566330D-01
              MO Center= -7.1D-01, -2.4D-01, -1.6D-01, r^2= 1.1D+01
   Bfn.  Coefficient  Atom+Function         Bfn.  Coefficient  Atom+Function  
  ----- ------------  ---------------      ----- ------------  ---------------
   541      0.184866  32 O  py              245     -0.165563  15 O  pz        
   162     -0.159329  10 H  s         

 Vector   53  Occ=2.000000D+00  E=-6.398027D-01
              MO Center= -2.9D-01,  7.8D-01,  1.0D+00, r^2= 7.4D+00
   Bfn.  Coefficient  Atom+Function         Bfn.  Coefficient  Atom+Function  
  ----- ------------  ---------------      ----- ------------  ---------------
   338      0.262775  20 O  pz              313     -0.237029  19 C  pz        
   334      0.230540  20 O  s               337     -0.197048  20 O  py        

 Vector   54  Occ=2.000000D+00  E=-6.365003D-01
              MO Center=  8.7D-01, -1.1D+00, -1.2D-01, r^2= 8.5D+00
   Bfn.  Coefficient  Atom+Function         Bfn.  Coefficient  Atom+Function  
  ----- ------------  ---------------      ----- ------------  ---------------
   635     -0.192967  37 O  pz              429      0.175734  25 C  px        
   609     -0.173154  36 C  py              541      0.162817  32 O  py        
   399     -0.150733  23 C  py        

 Vector   55  Occ=2.000000D+00  E=-6.225523D-01
              MO Center= -2.2D-01,  8.1D-01, -4.9D-01, r^2= 1.1D+01
   Bfn.  Coefficient  Atom+Function         Bfn.  Coefficient  Atom+Function  
  ----- ------------  ---------------      ----- ------------  ---------------
   139      0.236661   9 C  s               427     -0.208419  25 C  s         
    35     -0.158801   3 H  s                15     -0.155638   2 C  py        
   460      0.155219  27 H  s         

 Vector   56  Occ=2.000000D+00  E=-6.179460D-01
              MO Center= -4.1D-01,  9.5D-01, -4.7D-01, r^2= 1.0D+01
   Bfn.  Coefficient  Atom+Function         Bfn.  Coefficient  Atom+Function  
  ----- ------------  ---------------      ----- ------------  ---------------
    15     -0.186317   2 C  py                1      0.176960   1 H  s         
   427      0.172197  25 C  s               460     -0.170563  27 H  s         

 Vector   57  Occ=2.000000D+00  E=-6.071016D-01
              MO Center= -8.8D-02, -5.4D-01,  2.6D-02, r^2= 9.6D+00
   Bfn.  Coefficient  Atom+Function         Bfn.  Coefficient  Atom+Function  
  ----- ------------  ---------------      ----- ------------  ---------------
   139      0.225948   9 C  s               245     -0.187771  15 O  pz        
   610     -0.161219  36 C  pz              393     -0.157923  23 C  s         
   176     -0.154439  11 C  py        

 Vector   58  Occ=2.000000D+00  E=-6.038135D-01
              MO Center= -6.5D-01,  3.6D-01, -1.6D-01, r^2= 1.1D+01
   Bfn.  Coefficient  Atom+Function         Bfn.  Coefficient  Atom+Function  
  ----- ------------  ---------------      ----- ------------  ---------------
   173      0.273187  11 C  s               139     -0.241379   9 C  s         
   245      0.220686  15 O  pz              220     -0.180236  14 C  pz        
   177      0.162278  11 C  pz              196      0.155277  12 H  s         

 Vector   59  Occ=2.000000D+00  E=-5.943554D-01
              MO Center= -6.2D-01,  2.2D-01,  2.3D-01, r^2= 1.0D+01
   Bfn.  Coefficient  Atom+Function         Bfn.  Coefficient  Atom+Function  
  ----- ------------  ---------------      ----- ------------  ---------------
   177      0.219172  11 C  pz              393     -0.206164  23 C  s         
   196      0.195382  12 H  s               206     -0.193487  13 H  s         
   205     -0.180341  13 H  s               427      0.161591  25 C  s         
   173      0.152345  11 C  s         

 Vector   60  Occ=2.000000D+00  E=-5.873751D-01
              MO Center=  6.0D-01,  7.2D-01, -1.8D-02, r^2= 1.0D+01
   Bfn.  Coefficient  Atom+Function         Bfn.  Coefficient  Atom+Function  
  ----- ------------  ---------------      ----- ------------  ---------------
   173      0.182790  11 C  s               634     -0.180994  37 O  py        
   427     -0.176445  25 C  s                59      0.170439   5 C  pz        
    82     -0.170235   6 O  px              494      0.162373  29 H  s         
   399     -0.154403  23 C  py              610     -0.155079  36 C  pz        

 Vector   61  Occ=2.000000D+00  E=-5.772944D-01
              MO Center=  5.0D-01, -1.9D+00, -5.7D-01, r^2= 1.0D+01
   Bfn.  Coefficient  Atom+Function         Bfn.  Coefficient  Atom+Function  
  ----- ------------  ---------------      ----- ------------  ---------------
   516      0.270762  31 C  py              541     -0.245394  32 O  py        
   470     -0.208910  28 C  s               471      0.196361  28 C  s         
   514     -0.185962  31 C  s               538      0.165314  32 O  s         
   472     -0.153206  28 C  px        

 Vector   62  Occ=2.000000D+00  E=-5.765179D-01
              MO Center=  5.7D-01,  2.2D+00, -7.7D-01, r^2= 8.6D+00
   Bfn.  Coefficient  Atom+Function         Bfn.  Coefficient  Atom+Function  
  ----- ------------  ---------------      ----- ------------  ---------------
    45      0.247599   4 H  s                82      0.233031   6 O  px        
    59     -0.187906   5 C  pz               44      0.165952   4 H  s         
    83      0.159752   6 O  py                1     -0.156734   1 H  s         
    16      0.151161   2 C  pz        

 Vector   63  Occ=2.000000D+00  E=-5.698891D-01
              MO Center= -1.4D-01, -6.1D-01, -2.8D-01, r^2= 1.2D+01
   Bfn.  Coefficient  Atom+Function         Bfn.  Coefficient  Atom+Function  
  ----- ------------  ---------------      ----- ------------  ---------------
   417      0.203405  24 H  s               567      0.169051  33 N  pz        
   517      0.161482  31 C  pz              217     -0.152708  14 C  s         
   542      0.150856  32 O  pz        

 Vector   64  Occ=2.000000D+00  E=-5.591466D-01
              MO Center= -1.1D+00,  1.0D+00,  1.7D-01, r^2= 9.0D+00
   Bfn.  Coefficient  Atom+Function         Bfn.  Coefficient  Atom+Function  
  ----- ------------  ---------------      ----- ------------  ---------------
   173      0.297347  11 C  s               217     -0.255212  14 C  s         
   205      0.235534  13 H  s               310      0.212884  19 C  s         
   197     -0.198999  12 H  s               144      0.164542   9 C  px        
    44      0.160857   4 H  s               140      0.159024   9 C  s         
   139     -0.154543   9 C  s               206      0.154612  13 H  s         

 Vector   65  Occ=2.000000D+00  E=-5.539652D-01
              MO Center= -1.0D-01,  8.6D-01, -3.5D-01, r^2= 1.1D+01
   Bfn.  Coefficient  Atom+Function         Bfn.  Coefficient  Atom+Function  
  ----- ------------  ---------------      ----- ------------  ---------------
    14      0.220908   2 C  px              173     -0.210004  11 C  s         
   427     -0.194625  25 C  s                44      0.185501   4 H  s         
   217     -0.166139  14 C  s                45      0.154618   4 H  s         

 Vector   66  Occ=2.000000D+00  E=-5.412661D-01
              MO Center= -4.8D-01,  4.2D-01,  6.4D-02, r^2= 1.0D+01
   Bfn.  Coefficient  Atom+Function         Bfn.  Coefficient  Atom+Function  
  ----- ------------  ---------------      ----- ------------  ---------------
   175      0.202611  11 C  px              178      0.181070  11 C  px        
   141     -0.173993   9 C  px              142     -0.161624   9 C  py        
   494      0.152703  29 H  s         

 Vector   67  Occ=2.000000D+00  E=-5.310729D-01
              MO Center=  2.7D-01,  1.6D+00, -5.2D-01, r^2= 9.1D+00
   Bfn.  Coefficient  Atom+Function         Bfn.  Coefficient  Atom+Function  
  ----- ------------  ---------------      ----- ------------  ---------------
    15     -0.209964   2 C  py               83      0.199588   6 O  py        
   173      0.195232  11 C  s                 1      0.193316   1 H  s         
   139     -0.173930   9 C  s                 2      0.164313   1 H  s         
   336     -0.159654  20 O  px               58      0.153842   5 C  py        
    35     -0.151422   3 H  s         

 Vector   68  Occ=2.000000D+00  E=-5.253144D-01
              MO Center=  2.4D-01,  1.9D-01,  2.3D-01, r^2= 9.3D+00
   Bfn.  Coefficient  Atom+Function         Bfn.  Coefficient  Atom+Function  
  ----- ------------  ---------------      ----- ------------  ---------------
   460      0.211300  27 H  s               428      0.204461  25 C  s         
   337     -0.189217  20 O  py              494     -0.178501  29 H  s         
   502      0.167923  30 H  s               178     -0.162370  11 C  px        
   470      0.158156  28 C  s               427     -0.154155  25 C  s         
   459      0.153868  27 H  s               340     -0.151463  20 O  py        

 Vector   69  Occ=2.000000D+00  E=-5.108228D-01
              MO Center=  7.0D-01, -1.7D+00,  3.5D-02, r^2= 3.9D+00
   Bfn.  Coefficient  Atom+Function         Bfn.  Coefficient  Atom+Function  
  ----- ------------  ---------------      ----- ------------  ---------------
   427      0.408631  25 C  s               460     -0.345041  27 H  s         
   514      0.314944  31 C  s               450      0.298664  26 H  s         
   494      0.282310  29 H  s               493      0.260717  29 H  s         
   399      0.256653  23 C  py              451      0.254852  26 H  s         
   430     -0.222178  25 C  py              417     -0.220700  24 H  s         

 Vector   70  Occ=2.000000D+00  E=-5.005079D-01
              MO Center=  4.6D-01, -1.5D+00,  1.6D-01, r^2= 5.8D+00
   Bfn.  Coefficient  Atom+Function         Bfn.  Coefficient  Atom+Function  
  ----- ------------  ---------------      ----- ------------  ---------------
   474      0.292133  28 C  pz              431     -0.277981  25 C  pz        
   417      0.270502  24 H  s               477      0.212811  28 C  pz        
   502     -0.176879  30 H  s         

 Vector   71  Occ=2.000000D+00  E=-4.579882D-01
              MO Center= -4.1D-01,  1.2D+00,  1.1D+00, r^2= 6.0D+00
   Bfn.  Coefficient  Atom+Function         Bfn.  Coefficient  Atom+Function  
  ----- ------------  ---------------      ----- ------------  ---------------
   336      0.356705  20 O  px              339      0.287729  20 O  px        
   337     -0.230498  20 O  py              139      0.222696   9 C  s         
   173     -0.199254  11 C  s               244     -0.191757  15 O  py        
   340     -0.185222  20 O  py               82     -0.172662   6 O  px        
   309     -0.162487  19 C  s                83      0.161130   6 O  py        

 Vector   72  Occ=2.000000D+00  E=-4.556400D-01
              MO Center= -2.0D+00,  2.3D-01, -2.9D-01, r^2= 5.3D+00
   Bfn.  Coefficient  Atom+Function         Bfn.  Coefficient  Atom+Function  
  ----- ------------  ---------------      ----- ------------  ---------------
   244      0.451352  15 O  py              247      0.364358  15 O  py        
   222     -0.253442  14 C  py              163     -0.216853  10 H  s         
   176      0.174410  11 C  py              216     -0.157602  14 C  s         

 Vector   73  Occ=2.000000D+00  E=-4.418550D-01
              MO Center=  1.3D+00, -2.0D-01, -1.1D-01, r^2= 8.0D+00
   Bfn.  Coefficient  Atom+Function         Bfn.  Coefficient  Atom+Function  
  ----- ------------  ---------------      ----- ------------  ---------------
   633     -0.430915  37 O  px              393      0.394573  23 C  s         
   636     -0.355347  37 O  px              606     -0.280190  36 C  s         
   611      0.250312  36 C  px              139     -0.216959   9 C  s         
   623     -0.201869  36 C  dxx             268     -0.179532  16 N  px        
   470      0.170168  28 C  s               397      0.161531  23 C  pz        

 Vector   74  Occ=2.000000D+00  E=-4.374974D-01
              MO Center= -1.1D+00, -4.4D-01,  9.9D-02, r^2= 8.6D+00
   Bfn.  Coefficient  Atom+Function         Bfn.  Coefficient  Atom+Function  
  ----- ------------  ---------------      ----- ------------  ---------------
   268      0.367547  16 N  px              271      0.320225  16 N  px        
   243     -0.312288  15 O  px              267     -0.288081  16 N  s         
   246     -0.256244  15 O  px              633     -0.222774  37 O  px        
   460     -0.197073  27 H  s               636     -0.182609  37 O  px        
   606     -0.164239  36 C  s         

 Vector   75  Occ=2.000000D+00  E=-4.325968D-01
              MO Center=  3.2D+00, -5.8D-01, -7.9D-02, r^2= 4.3D+00
   Bfn.  Coefficient  Atom+Function         Bfn.  Coefficient  Atom+Function  
  ----- ------------  ---------------      ----- ------------  ---------------
   634      0.333225  37 O  py              659     -0.329733  38 N  py        
   662     -0.272026  38 N  py              637      0.266912  37 O  py        
   660     -0.208738  38 N  pz              635      0.197364  37 O  pz        
   663     -0.187267  38 N  pz              638      0.153448  37 O  pz        

 Vector   76  Occ=2.000000D+00  E=-4.290297D-01
              MO Center=  8.1D-01,  3.1D+00, -4.7D-01, r^2= 3.9D+00
   Bfn.  Coefficient  Atom+Function         Bfn.  Coefficient  Atom+Function  
  ----- ------------  ---------------      ----- ------------  ---------------
    84      0.419065   6 O  pz               87      0.325691   6 O  pz        
    82     -0.232362   6 O  px               13     -0.226854   2 C  s         
    16      0.217695   2 C  pz               83     -0.216917   6 O  py        
    19      0.214081   2 C  pz              105     -0.212982   7 N  s         
    85     -0.192212   6 O  px               86     -0.182905   6 O  py        

 Vector   77  Occ=2.000000D+00  E=-4.137844D-01
              MO Center= -3.9D-01, -3.1D+00, -5.3D-01, r^2= 5.3D+00
   Bfn.  Coefficient  Atom+Function         Bfn.  Coefficient  Atom+Function  
  ----- ------------  ---------------      ----- ------------  ---------------
   427      0.505420  25 C  s               540      0.486502  32 O  px        
   543      0.387615  32 O  px              393     -0.296905  23 C  s         
   518     -0.252008  31 C  px              503      0.202500  30 H  s         
   473      0.174408  28 C  py              470     -0.162735  28 C  s         
   399      0.157412  23 C  py              531     -0.155623  31 C  dxy       

 Vector   78  Occ=2.000000D+00  E=-4.065772D-01
              MO Center=  3.3D-02,  5.0D-01,  5.3D-01, r^2= 8.3D+00
   Bfn.  Coefficient  Atom+Function         Bfn.  Coefficient  Atom+Function  
  ----- ------------  ---------------      ----- ------------  ---------------
   337      0.271143  20 O  py              108     -0.215189   7 N  py        
   340      0.212336  20 O  py              361     -0.209558  21 N  px        
   139     -0.194139   9 C  s               111     -0.188447   7 N  py        
   398      0.168213  23 C  px              540      0.165098  32 O  px        
   106     -0.163936   7 N  s               364     -0.158837  21 N  px        

 Vector   79  Occ=2.000000D+00  E=-4.041890D-01
              MO Center= -1.1D+00, -2.9D+00, -8.0D-01, r^2= 4.5D+00
   Bfn.  Coefficient  Atom+Function         Bfn.  Coefficient  Atom+Function  
  ----- ------------  ---------------      ----- ------------  ---------------
   567     -0.375394  33 N  pz              542      0.368190  32 O  pz        
   570     -0.346937  33 N  pz              545      0.294012  32 O  pz        
   564      0.197203  33 N  s               565      0.153709  33 N  px        

 Vector   80  Occ=2.000000D+00  E=-3.979666D-01
              MO Center=  1.8D-01,  1.1D+00,  6.2D-01, r^2= 6.1D+00
   Bfn.  Coefficient  Atom+Function         Bfn.  Coefficient  Atom+Function  
  ----- ------------  ---------------      ----- ------------  ---------------
   336      0.252106  20 O  px              108      0.225567   7 N  py        
    83     -0.208199   6 O  py              111      0.208232   7 N  py        
   339      0.208373  20 O  px              362     -0.197008  21 N  py        
   363     -0.197237  21 N  pz              360     -0.193195  21 N  s         
   364     -0.190457  21 N  px              107     -0.179038   7 N  px        

 Vector   81  Occ=0.000000D+00  E= 2.692440D-02
              MO Center=  3.4D+00, -1.6D+00,  1.4D+00, r^2= 3.1D+01
   Bfn.  Coefficient  Atom+Function         Bfn.  Coefficient  Atom+Function  
  ----- ------------  ---------------      ----- ------------  ---------------
   384      2.623958  22 H  s               657     -2.449957  38 N  s         
   614      2.393597  36 C  px              514      2.056619  31 C  s         
   401      1.914298  23 C  px              217      1.712064  14 C  s         
   690     -1.617658  40 H  s               418     -1.546177  24 H  s         
   681     -1.542854  39 H  s               310      1.476786  19 C  s         

 Vector   82  Occ=0.000000D+00  E= 2.894451D-02
              MO Center= -2.0D+00,  1.6D+00,  1.8D-01, r^2= 3.9D+01
   Bfn.  Coefficient  Atom+Function         Bfn.  Coefficient  Atom+Function  
  ----- ------------  ---------------      ----- ------------  ---------------
   317      3.133616  19 C  px              207      2.855823  13 H  s         
   217     -2.553218  14 C  s               318     -2.392089  19 C  py        
   181      2.229912  11 C  px              360     -2.148697  21 N  s         
   140      2.112284   9 C  s               401      2.031276  23 C  px        
   384     -2.008201  22 H  s               402     -1.864788  23 C  py        

 Vector   83  Occ=0.000000D+00  E= 3.792640D-02
              MO Center= -1.6D+00,  1.0D+00, -6.9D-01, r^2= 4.0D+01
   Bfn.  Coefficient  Atom+Function         Bfn.  Coefficient  Atom+Function  
  ----- ------------  ---------------      ----- ------------  ---------------
   217      4.385324  14 C  s                65      3.595641   5 C  pz        
   267     -3.491305  16 N  s               384     -2.952359  22 H  s         
   471      2.512827  28 C  s               198     -2.139705  12 H  s         
    37      2.057271   3 H  s               149      1.956231   9 C  pz        
    64     -1.866101   5 C  py              300     -1.736967  18 H  s         

 Vector   84  Occ=0.000000D+00  E= 4.123399D-02
              MO Center= -2.8D+00, -9.8D-01, -8.4D-01, r^2= 3.4D+01
   Bfn.  Coefficient  Atom+Function         Bfn.  Coefficient  Atom+Function  
  ----- ------------  ---------------      ----- ------------  ---------------
    56      3.017643   5 C  s               267      2.946446  16 N  s         
   174     -2.760627  11 C  s                65      2.447982   5 C  pz        
   521      2.399685  31 C  px              225      2.309871  14 C  py        
   495     -2.286629  29 H  s               479      2.275031  28 C  py        
   164     -2.152263  10 H  s               564      2.147795  33 N  s         

 Vector   85  Occ=0.000000D+00  E= 4.815095D-02
              MO Center=  1.9D+00, -2.8D-01,  4.0D-01, r^2= 4.4D+01
   Bfn.  Coefficient  Atom+Function         Bfn.  Coefficient  Atom+Function  
  ----- ------------  ---------------      ----- ------------  ---------------
   428      3.554648  25 C  s                56      3.518005   5 C  s         
   418      3.502792  24 H  s               318      3.461220  19 C  py        
   147     -3.091719   9 C  px              384     -2.916915  22 H  s         
   514     -2.497013  31 C  s               690     -2.444328  40 H  s         
   394      2.416491  23 C  s               403     -2.324620  23 C  pz        

 Vector   86  Occ=0.000000D+00  E= 5.144198D-02
              MO Center= -2.5D-01,  1.2D+00, -4.1D-01, r^2= 4.5D+01
   Bfn.  Coefficient  Atom+Function         Bfn.  Coefficient  Atom+Function  
  ----- ------------  ---------------      ----- ------------  ---------------
   207      3.834473  13 H  s               217      3.333884  14 C  s         
   198     -3.023209  12 H  s               183      2.574148  11 C  pz        
   106      2.520282   7 N  s               471     -2.400388  28 C  s         
    46     -2.273125   4 H  s                56     -2.268640   5 C  s         
   267     -2.137564  16 N  s               148      2.033112   9 C  py        

 Vector   87  Occ=0.000000D+00  E= 5.655837D-02
              MO Center= -1.1D+00,  6.4D-01,  8.9D-01, r^2= 4.1D+01
   Bfn.  Coefficient  Atom+Function         Bfn.  Coefficient  Atom+Function  
  ----- ------------  ---------------      ----- ------------  ---------------
   164      5.573547  10 H  s               514     -4.413211  31 C  s         
   495     -4.174771  29 H  s               149     -4.153256   9 C  pz        
   310      3.378690  19 C  s                13     -3.130665   2 C  s         
[...]

 Vector  196  Occ=0.000000D+00  E= 4.423160D-01
              MO Center=  8.3D-01,  6.0D-01,  4.4D-02, r^2= 2.1D+01
   Bfn.  Coefficient  Atom+Function         Bfn.  Coefficient  Atom+Function  
  ----- ------------  ---------------      ----- ------------  ---------------
   514    -15.450079  31 C  s               384     14.281452  22 H  s         
   317    -11.863777  19 C  px              149     -9.708147   9 C  pz        
   318      8.293331  19 C  py              106     -8.148532   7 N  s         
   435     -7.760178  25 C  px               65     -7.427011   5 C  pz        
   479     -7.121798  28 C  py              360      7.009365  21 N  s         

 Vector  197  Occ=0.000000D+00  E= 4.444896D-01
              MO Center= -2.2D-02,  6.4D-01,  3.8D-01, r^2= 2.0D+01
   Bfn.  Coefficient  Atom+Function         Bfn.  Coefficient  Atom+Function  
  ----- ------------  ---------------      ----- ------------  ---------------
    13     11.644247   2 C  s               217     10.845344  14 C  s         
   310    -10.016486  19 C  s                65      9.201148   5 C  pz        
   514      8.445612  31 C  s               140     -8.303391   9 C  s         
   607     -8.225501  36 C  s               394     -7.199604  23 C  s         
   147      6.673718   9 C  px              318     -6.654928  19 C  py        

 Vector  198  Occ=0.000000D+00  E= 4.470580D-01
              MO Center= -3.3D-01, -8.4D-01,  4.4D-01, r^2= 1.9D+01
   Bfn.  Coefficient  Atom+Function         Bfn.  Coefficient  Atom+Function  
  ----- ------------  ---------------      ----- ------------  ---------------
   267     17.922738  16 N  s               217    -12.623656  14 C  s         
   460     -8.760094  27 H  s               310     -7.997935  19 C  s         
   461     -6.713783  27 H  s               514      6.561307  31 C  s         
    13      6.033184   2 C  s                56      5.451778   5 C  s         
   435     -5.424470  25 C  px              225      5.272470  14 C  py        

 Vector  199  Occ=0.000000D+00  E= 4.485477D-01
              MO Center=  2.5D-01,  7.9D-01, -6.9D-01, r^2= 2.4D+01
   Bfn.  Coefficient  Atom+Function         Bfn.  Coefficient  Atom+Function  
  ----- ------------  ---------------      ----- ------------  ---------------
   106     16.048447   7 N  s               318     -9.979994  19 C  py        
   147      8.143166   9 C  px              149      7.439147   9 C  pz        
   402     -7.217886  23 C  py              130      6.867062   8 H  s         
   367      6.890517  21 N  px              182      6.557558  11 C  py        
   174     -6.201877  11 C  s               479      6.221156  28 C  py        

 Vector  200  Occ=0.000000D+00  E= 4.564272D-01
              MO Center= -5.1D-01,  7.7D-02,  3.5D-01, r^2= 2.0D+01
   Bfn.  Coefficient  Atom+Function         Bfn.  Coefficient  Atom+Function  
  ----- ------------  ---------------      ----- ------------  ---------------
   514     27.947872  31 C  s               310    -13.755550  19 C  s         
   564    -13.178982  33 N  s               402      9.139490  23 C  py        
    56     -9.005130   5 C  s               174      7.573076  11 C  s         
   479      7.561511  28 C  py              427     -7.436417  25 C  s         
   173     -6.892300  11 C  s               435      6.752636  25 C  px        

 Vector  201  Occ=0.000000D+00  E= 4.596363D-01
              MO Center=  1.8D-02, -1.2D-01, -7.0D-02, r^2= 2.1D+01
   Bfn.  Coefficient  Atom+Function         Bfn.  Coefficient  Atom+Function  
  ----- ------------  ---------------      ----- ------------  ---------------
   217     34.002224  14 C  s               267    -20.847876  16 N  s         
   514    -17.187886  31 C  s                56    -12.927659   5 C  s         
    12    -10.491989   2 C  s               318     -9.453283  19 C  py        
   401      8.048461  23 C  px              147      7.828483   9 C  px        
   310      7.272122  19 C  s               369     -6.766126  21 N  pz        

 Vector  202  Occ=0.000000D+00  E= 4.616219D-01
              MO Center= -4.7D-01,  6.0D-01, -1.9D-01, r^2= 2.0D+01
   Bfn.  Coefficient  Atom+Function         Bfn.  Coefficient  Atom+Function  
  ----- ------------  ---------------      ----- ------------  ---------------
   174     15.270701  11 C  s               367     12.621723  21 N  px        
    56    -10.902526   5 C  s               225     -9.159792  14 C  py        
   401     -8.921685  23 C  px              478      8.335766  28 C  px        
   368     -7.881405  21 N  py              428     -7.904149  25 C  s         
   217      6.819665  14 C  s               197     -6.336992  12 H  s         

 Vector  203  Occ=0.000000D+00  E= 4.663277D-01
              MO Center=  2.4D-01, -5.2D-01, -1.9D-01, r^2= 2.0D+01
   Bfn.  Coefficient  Atom+Function         Bfn.  Coefficient  Atom+Function  
  ----- ------------  ---------------      ----- ------------  ---------------
   471     16.060774  28 C  s               470    -14.331220  28 C  s         
   514    -13.610953  31 C  s               174    -12.128386  11 C  s         
   267     12.031492  16 N  s                13    -11.334478   2 C  s         
   147    -10.833256   9 C  px              217    -10.202549  14 C  s         
   607     -9.794046  36 C  s               173     -9.499531  11 C  s         

 Vector  204  Occ=0.000000D+00  E= 4.715080D-01
              MO Center= -2.7D-01, -1.1D+00, -8.2D-01, r^2= 2.1D+01
   Bfn.  Coefficient  Atom+Function         Bfn.  Coefficient  Atom+Function  
  ----- ------------  ---------------      ----- ------------  ---------------
   514     15.036372  31 C  s               471    -10.612139  28 C  s         
   479     10.413899  28 C  py               13      9.859710   2 C  s         
   174      9.071372  11 C  s               217      8.529694  14 C  s         
   495     -8.464141  29 H  s               173      8.401559  11 C  s         
   478      7.044945  28 C  px              206     -6.919317  13 H  s         

 Vector  205  Occ=0.000000D+00  E= 4.742622D-01
              MO Center=  4.3D-01,  1.3D+00, -5.7D-01, r^2= 2.2D+01
   Bfn.  Coefficient  Atom+Function         Bfn.  Coefficient  Atom+Function  
  ----- ------------  ---------------      ----- ------------  ---------------
   217     25.809762  14 C  s               607    -14.470426  36 C  s         
   174    -13.880026  11 C  s               360     13.865429  21 N  s         
   140    -12.621386   9 C  s               267    -10.883133  16 N  s         
   113     -9.302772   7 N  px               12      8.367134   2 C  s         
    56      8.346468   5 C  s               310     -8.307493  19 C  s         

 Vector  206  Occ=0.000000D+00  E= 4.760372D-01
              MO Center=  6.6D-02,  5.8D-01,  4.4D-01, r^2= 2.0D+01
   Bfn.  Coefficient  Atom+Function         Bfn.  Coefficient  Atom+Function  
  ----- ------------  ---------------      ----- ------------  ---------------
   217     24.816073  14 C  s               140    -18.817843   9 C  s         
   267    -18.882361  16 N  s               514     16.934740  31 C  s         
    13     15.401454   2 C  s               310    -15.470719  19 C  s         
    65     12.932008   5 C  pz              360     10.996649  21 N  s         
   607     -9.969995  36 C  s               369      9.785673  21 N  pz        

 Vector  207  Occ=0.000000D+00  E= 4.828892D-01
              MO Center= -8.0D-01, -1.2D+00, -2.9D-01, r^2= 2.0D+01
   Bfn.  Coefficient  Atom+Function         Bfn.  Coefficient  Atom+Function  
  ----- ------------  ---------------      ----- ------------  ---------------
   217     31.915337  14 C  s               564     15.209698  33 N  s         
   267    -14.552492  16 N  s               147     11.139817   9 C  px        
   521      8.773647  31 C  px              225      8.479190  14 C  py        
   181      8.406993  11 C  px               56     -8.015144   5 C  s         
   140     -7.649702   9 C  s               427     -7.282139  25 C  s         

 Vector  208  Occ=0.000000D+00  E= 4.844415D-01
              MO Center=  1.8D-01,  2.1D-01, -6.6D-01, r^2= 2.2D+01
   Bfn.  Coefficient  Atom+Function         Bfn.  Coefficient  Atom+Function  
  ----- ------------  ---------------      ----- ------------  ---------------
   217     18.698193  14 C  s               495    -14.242433  29 H  s         
   360     10.245893  21 N  s               149     -9.684810   9 C  pz        
   367      9.473730  21 N  px              402     -9.335905  23 C  py        
   514     -9.321415  31 C  s               657      9.308477  38 N  s         
   318      8.548883  19 C  py              437     -8.550937  25 C  pz        

 Vector  209  Occ=0.000000D+00  E= 4.903145D-01
              MO Center= -6.5D-01, -1.0D-01,  9.2D-02, r^2= 1.9D+01
   Bfn.  Coefficient  Atom+Function         Bfn.  Coefficient  Atom+Function  
  ----- ------------  ---------------      ----- ------------  ---------------
   360     13.384051  21 N  s               514     10.188209  31 C  s         
   564     -9.427790  33 N  s               147     -9.143342   9 C  px        
   217     -9.072431  14 C  s               470      7.816253  28 C  s         
   367     -7.666745  21 N  px              428      7.204846  25 C  s         
   494     -6.502245  29 H  s               394      6.219686  23 C  s         

 Vector  210  Occ=0.000000D+00  E= 4.969101D-01
              MO Center=  1.2D+00,  6.5D-02, -1.2D-01, r^2= 2.0D+01
   Bfn.  Coefficient  Atom+Function         Bfn.  Coefficient  Atom+Function  
  ----- ------------  ---------------      ----- ------------  ---------------
   384     15.562897  22 H  s               217     14.762023  14 C  s         
   495    -12.313062  29 H  s               318     -8.326847  19 C  py        
   480     -7.868466  28 C  pz              615     -7.494995  36 C  py        
   451      6.225911  26 H  s               226      5.897841  14 C  pz        
   657     -5.830461  38 N  s               607     -5.374762  36 C  s         

 Vector  211  Occ=0.000000D+00  E= 4.974679D-01
              MO Center=  1.6D-02, -4.6D-01,  3.1D-01, r^2= 2.0D+01
   Bfn.  Coefficient  Atom+Function         Bfn.  Coefficient  Atom+Function  
  ----- ------------  ---------------      ----- ------------  ---------------
   514     19.191087  31 C  s                12     10.042840   2 C  s         
   217     -9.633449  14 C  s               384     -9.579718  22 H  s         
   428     -7.146683  25 C  s               480      6.904799  28 C  pz        
   360      6.393253  21 N  s               310     -6.336925  19 C  s         
   173     -5.916150  11 C  s               115     -5.857972   7 N  pz        

 Vector  212  Occ=0.000000D+00  E= 5.053947D-01
              MO Center= -1.9D-01,  2.1D-01,  1.2D-01, r^2= 2.0D+01
   Bfn.  Coefficient  Atom+Function         Bfn.  Coefficient  Atom+Function  
  ----- ------------  ---------------      ----- ------------  ---------------
   514     11.466897  31 C  s                13     10.595251   2 C  s         
   217     -8.937771  14 C  s               174      7.733686  11 C  s         
   564     -7.641150  33 N  s               367      7.071700  21 N  px        
   401     -6.878015  23 C  px              368     -6.835501  21 N  py        
   206     -6.608819  13 H  s               173      5.537862  11 C  s         


 center of mass
 --------------
 x =   0.01102035 y =  -0.00007108 z =   0.01987618

 moments of inertia (a.u.)
 ------------------
        6412.592705230541          -0.000000000000           0.000000000000
          -0.000000000000        5466.745106887172          -0.000000000000
           0.000000000000          -0.000000000000        8965.001749722212

  Mulliken analysis of the total density
  --------------------------------------

    Atom       Charge   Shell Charges
 -----------   ------   -------------------------------------------------------
    1 H    1     0.86   0.76  0.13  0.01  0.03 -0.07
    2 C    6     6.30   2.01  0.66  0.30  0.12  2.07  0.99 -0.01  0.06  0.11
    3 H    1     0.83   0.76  0.10  0.00  0.03 -0.06
    4 H    1     0.98   0.76  0.24  0.01  0.03 -0.06
    5 C    6     5.29   2.01  0.68  0.13 -0.04  1.90  0.37  0.02  0.24 -0.01
    6 O    8     8.76   2.01  0.82  1.00  0.17  2.79  1.83  0.15  0.01 -0.02
    7 N    7     7.56   2.01  0.72  0.78 -0.08  2.46  1.44  0.17  0.05  0.02
    8 H    1     0.89   0.75  0.13 -0.01  0.06 -0.05
    9 C    6     6.26   2.01  0.66 -0.01  0.03  1.99  1.28  0.13  0.14  0.04
   10 H    1     1.07   0.78  0.25  0.01  0.03 -0.00
   11 C    6     6.55   2.01  0.66  0.75 -0.01  2.06  0.87 -0.06  0.09  0.19
   12 H    1     0.82   0.78  0.09 -0.01  0.03 -0.06
   13 H    1     0.82   0.77  0.12 -0.00  0.03 -0.09
   14 C    6     4.43   2.01  0.68  0.03 -0.03  1.90 -0.23 -0.09  0.24 -0.08
   15 O    8     8.93   2.01  0.81  1.03  0.20  2.81  1.89  0.15  0.02  0.00
   16 N    7     7.24   2.01  0.72  0.80 -0.05  2.47  1.23  0.05  0.04 -0.02
   17 H    1     0.93   0.75  0.17  0.00  0.06 -0.05
   18 H    1     0.92   0.75  0.18 -0.02  0.06 -0.05
   19 C    6     4.68   2.01  0.68  0.16 -0.03  1.89  0.06 -0.03  0.24 -0.28
   20 O    8     8.98   2.01  0.82  1.05  0.23  2.79  1.88  0.18  0.01  0.00
   21 N    7     7.24   2.01  0.72  0.82 -0.18  2.45  1.41 -0.09  0.05  0.04
   22 H    1     0.96   0.75  0.24 -0.02  0.06 -0.06
   23 C    6     6.27   2.01  0.66  0.29  0.02  2.00  1.18 -0.03  0.14  0.01
   24 H    1     1.21   0.78  0.37  0.03  0.03  0.01
   25 C    6     5.96   2.01  0.66  0.41  0.07  2.03  0.54  0.01  0.09  0.13
   26 H    1     0.96   0.78  0.20  0.02  0.03 -0.08
   27 H    1     1.04   0.78  0.35 -0.03  0.03 -0.08
   28 C    6     6.20   2.01  0.66  0.55 -0.08  2.05  0.79  0.04  0.09  0.09
   29 H    1     1.05   0.78  0.34 -0.07  0.03 -0.03
   30 H    1     0.92   0.77  0.17  0.00  0.03 -0.05
   31 C    6     4.62   2.01  0.68  0.08  0.02  1.90 -0.13  0.00  0.24 -0.18
   32 O    8     8.83   2.01  0.82  1.03  0.19  2.80  1.84  0.14  0.02 -0.00
   33 N    7     7.28   2.01  0.72  0.81 -0.12  2.47  1.25  0.11  0.04 -0.01
   34 H    1     0.84   0.72  0.18 -0.01  0.06 -0.10
   35 H    1     0.99   0.76  0.21 -0.01  0.05 -0.03
   36 C    6     4.48   2.01  0.68 -0.03  0.15  1.89 -0.22 -0.02  0.23 -0.21
   37 O    8     8.82   2.01  0.82  1.04  0.16  2.79  1.87  0.13  0.01 -0.00
   38 N    7     7.26   2.01  0.72  0.83 -0.14  2.46  1.28  0.07  0.04 -0.02
   39 H    1     0.97   0.76  0.21 -0.02  0.05 -0.04
   40 H    1     0.96   0.75  0.19 -0.01  0.05 -0.02

       Multipole analysis of the density wrt the origin
       ------------------------------------------------

     L   x y z        total         open         nuclear
     -   - - -        -----         ----         -------
     0   0 0 0     -0.000000      0.000000    160.000000

     1   1 0 0     -0.644384      0.000000     -0.000000
     1   0 1 0      0.175423      0.000000      0.000000
     1   0 0 1      0.239981      0.000000      0.000000

     2   2 0 0    -77.770580      0.000000   2176.602568
     2   1 1 0    -12.423285      0.000000    -22.833565
     2   1 0 1      2.953225      0.000000     -0.608985
     2   0 2 0   -111.180190      0.000000   2654.783592
     2   0 1 1     -8.019750      0.000000    -39.357922
     2   0 0 2    -93.774290      0.000000    820.460609


 Task  times  cpu:     6912.3s     wall:     6935.1s


                                NWChem Input Module
                                -------------------


 Summary of allocated global arrays
-----------------------------------
  No active global arrays


MA_summarize_allocated_blocks: starting scan ...
MA_summarize_allocated_blocks: scan completed: 0 heap blocks, 0 stack blocks
MA usage statistics:

	allocation statistics:
					      heap	     stack
					      ----	     -----
	current number of blocks	         0	         0
	maximum number of blocks	        16	        14
	current total bytes		         0	         0
	maximum total bytes		    148472	  31456184
	maximum total K-bytes		       149	     31457
	maximum total M-bytes		         1	        32


                                     CITATION
                                     --------
                Please cite the following reference when publishing
                           results obtained with NWChem:

          E. Apra, E. J. Bylaska, W. A. de Jong, N. Govind, K. Kowalski,
       T. P. Straatsma, M. Valiev, H. J. J. van Dam, Y. Alexeev, J. Anchell,
       V. Anisimov, F. W. Aquino, R. Atta-Fynn, J. Autschbach, N. P. Bauman,
     J. C. Becca, D. E. Bernholdt, K. Bhaskaran-Nair, S. Bogatko, P. Borowski,
         J. Boschen, J. Brabec, A. Bruner, E. Cauet, Y. Chen, G. N. Chuev,
      C. J. Cramer, J. Daily, M. J. O. Deegan, T. H. Dunning Jr., M. Dupuis,
   K. G. Dyall, G. I. Fann, S. A. Fischer, A. Fonari, H. Fruchtl, L. Gagliardi,
      J. Garza, N. Gawande, S. Ghosh, K. Glaesemann, A. W. Gotz, J. Hammond,
       V. Helms, E. D. Hermes, K. Hirao, S. Hirata, M. Jacquelin, L. Jensen,
   B. G. Johnson, H. Jonsson, R. A. Kendall, M. Klemm, R. Kobayashi, V. Konkov,
      S. Krishnamoorthy, M. Krishnan, Z. Lin, R. D. Lins, R. J. Littlefield,
      A. J. Logsdail, K. Lopata, W. Ma, A. V. Marenich, J. Martin del Campo,
   D. Mejia-Rodriguez, J. E. Moore, J. M. Mullin, T. Nakajima, D. R. Nascimento,
    J. A. Nichols, P. J. Nichols, J. Nieplocha, A. Otero-de-la-Roza, B. Palmer,
    A. Panyala, T. Pirojsirikul, B. Peng, R. Peverati, J. Pittner, L. Pollack,
   R. M. Richard, P. Sadayappan, G. C. Schatz, W. A. Shelton, D. W. Silverstein,
   D. M. A. Smith, T. A. Soares, D. Song, M. Swart, H. L. Taylor, G. S. Thomas,
            V. Tipparaju, D. G. Truhlar, K. Tsemekhman, T. Van Voorhis,
      A. Vazquez-Mayagoitia, P. Verma, O. Villa, A. Vishnu, K. D. Vogiatzis,
        D. Wang, J. H. Weare, M. J. Williamson, T. L. Windus, K. Wolinski,
        A. T. Wong, Q. Wu, C. Yang, Q. Yu, M. Zacharias, Z. Zhang, Y. Zhao,
                                and R. J. Harrison
                        "NWChem: Past, present, and future
                         J. Chem. Phys. 152, 184102 (2020)
                               doi:10.1063/5.0004997

                                      AUTHORS
                                      -------
  E. Apra, E. J. Bylaska, N. Govind, K. Kowalski, M. Valiev, D. Mejia-Rodriguez,
       A. Kunitsa, N. P. Bauman, A. Panyala, W. A. de Jong, T. P. Straatsma,
   H. J. J. van Dam, D. Wang, T. L. Windus, J. Hammond, J. Autschbach, A. Woods,
    K. Bhaskaran-Nair, J. Brabec, K. Lopata, S. A. Fischer, S. Krishnamoorthy,
     M. Jacquelin, W. Ma, M. Klemm, O. Villa, Y. Chen, V. Anisimov, F. Aquino,
     S. Hirata, M. T. Hackler, E. Hermes, L. Jensen, J. E. Moore, J. C. Becca,
      V. Konjkov, T. Risthaus, M. Malagoli, A. Marenich, A. Otero-de-la-Roza,
        J. Mullin, P. Nichols, R. Peverati, J. Pittner, Y. Zhao, P.-D. Fan,
        A. Fonari, M. J. Williamson, R. J. Harrison, J. R. Rehr, M. Dupuis,
     D. Silverstein, D. M. A. Smith, J. Nieplocha, V. Tipparaju, M. Krishnan,
     B. E. Van Kuiken, A. Vazquez-Mayagoitia, M. Swart, Q. Wu, T. Van Voorhis,
     A. A. Auer, M. Nooijen, L. D. Crosby, E. Brown, G. Cisneros, G. I. Fann,
   H. Fruchtl, J. Garza, K. Hirao, R. A. Kendall, J. A. Nichols, K. Tsemekhman,
    K. Wolinski, J. Anchell, D. E. Bernholdt, P. Borowski, T. Clark, D. Clerc,
   H. Dachsel, M. J. O. Deegan, K. Dyall, D. Elwood, E. Glendening, M. Gutowski,
   A. C. Hess, J. Jaffe, B. G. Johnson, J. Ju, R. Kobayashi, R. Kutteh, Z. Lin,
   R. Littlefield, X. Long, B. Meng, T. Nakajima, S. Niu, L. Pollack, M. Rosing,
   K. Glaesemann, G. Sandrone, M. Stave, H. Taylor, G. Thomas, J. H. van Lenthe,
                               A. T. Wong, Z. Zhang.

 Total times  cpu:     6912.4s     wall:     6935.6s
