export TMOUT=5400
export TMPDIR=/tmp
export PTMPDIR=/tmp/ptmp
 argument  1 = inputs/ASN_ASN_3.nw



============================== echo of input deck ==============================
start ASN_ASN_3
geometry
H         -8.46900       11.53400       -3.19400
C         -7.74000       10.97600       -2.60800
H         -6.92300       10.65700       -3.25500
H         -8.21500       10.10600       -2.16000
C         -7.18800       11.86800       -1.52300
O         -5.99500       12.13700       -1.49000
N         -8.05100       12.29500       -0.60200
H         -9.00600       11.96900       -0.65300
C         -7.71500       13.22400        0.48800
H         -7.35900       14.16000        0.05400
C         -9.00100       13.49800        1.29300
H         -8.82500       14.33100        1.97400
H         -9.81800       13.77200        0.62600
C         -9.40300       12.27100        2.09500
O         -9.88300       11.29000        1.55100
N         -9.10600       12.25300        3.37100
H         -9.10500       11.34300        3.82000
H         -8.60800       13.01800        3.78800
C         -6.61000       12.71400        1.44100
O         -6.03700       13.50200        2.18600
N         -6.35600       11.40200        1.45800
H         -6.88800       10.82600        0.82700
C         -5.39000       10.74500        2.34400
H         -5.37700       11.28500        3.29400
C         -5.86800        9.30600        2.62600
H         -5.71700        8.69900        1.73500
H         -5.26300        8.88000        3.42700
C         -7.32700        9.23700        3.04900
O         -7.75300        9.82000        4.03100
N         -8.16100        8.56500        2.29100
H         -7.84100        8.05900        1.48900
H         -9.13400        8.63200        2.54000
C         -3.94200       10.77900        1.80400
O         -3.03900       10.23100        2.42300
N         -3.68900       11.37100        0.64100
H         -2.73900       11.38400        0.30900
H         -4.43400       11.80600        0.11500
end

basis
 * library aug-cc-pvdz
end

echo

scf
 direct
end

task scf energy
================================================================================


                                         
                                         


             Northwest Computational Chemistry Package (NWChem) 7.2.0
             --------------------------------------------------------


                    Environmental Molecular Sciences Laboratory
                       Pacific Northwest National Laboratory
                                Richland, WA 99352

                              Copyright (c) 1994-2022
                       Pacific Northwest National Laboratory
                            Battelle Memorial Institute

             NWChem is an open-source computational chemistry package
                        distributed under the terms of the
                      Educational Community License (ECL) 2.0
             A copy of the license is included with this distribution
                              in the LICENSE.TXT file

                                  ACKNOWLEDGMENT
                                  --------------

            This software and its documentation were developed at the
            EMSL at Pacific Northwest National Laboratory, a multiprogram
            national laboratory, operated for the U.S. Department of Energy
            by Battelle under Contract Number DE-AC05-76RL01830. Support
            for this work was provided by the Department of Energy Office
            of Biological and Environmental Research, Office of Basic
            Energy Sciences, and the Office of Advanced Scientific Computing.


           Job information
           ---------------

    hostname        = nova21-swift-4
    program         = /opt/rit/el9/20230413/app/linux-rhel9-x86_64_v3/gcc-11.2.1/nwchem-7.2.0-oxtctbuhfuzyfaoziquq6bki22grib3g/bin/nwchem
    date            = Thu Jul 10 02:32:24 2025

    compiled        = Wed_May_17_23:46:39_2023
    source          = /tmp/root/spack-stage/spack-stage-nwchem-7.2.0-oxtctbuhfuzyfaoziquq6bki22grib3g/spack-src
    nwchem branch   = 7.2.0
    nwchem revision = d0d141fd
    ga revision     = 5.8.0
    use scalapack   = T
    input           = inputs/ASN_ASN_3.nw
    prefix          = ASN_ASN_3.
    data base       = ./ASN_ASN_3.db
    status          = startup
    nproc           =        8
    time left       =     -1s



           Memory information
           ------------------

    heap     =   26214396 doubles =    200.0 Mbytes
    stack    =   26214401 doubles =    200.0 Mbytes
    global   =   52428800 doubles =    400.0 Mbytes (distinct from heap & stack)
    total    =  104857597 doubles =    800.0 Mbytes
    verify   = yes
    hardfail = no 


           Directory information
           ---------------------

  0 permanent = .
  0 scratch   = .




                                NWChem Input Module
                                -------------------



 Scaling coordinates for geometry "geometry" by  1.889725989
 (inverse scale =  0.529177249)

 C1  symmetry detected

          ------
          auto-z
          ------
  no constraints, skipping    0.0000000000000000     
  no constraints, skipping    0.0000000000000000     


                             Geometry "geometry" -> ""
                             -------------------------

 Output coordinates in angstroms (scale by  1.889725989 to convert to a.u.)

  No.       Tag          Charge          X              Y              Z
 ---- ---------------- ---------- -------------- -------------- --------------
    1 H                    1.0000     2.96002626     3.00931195    -2.22256265
    2 C                    6.0000     2.67733995     1.95915929    -2.28145934
    3 H                    1.0000     3.51296986     1.38068087    -2.67508909
    4 H                    1.0000     1.81312703     1.84576300    -2.93223297
    5 C                    6.0000     2.34065591     1.45755703    -0.89847994
    6 O                    8.0000     2.98900655     0.55108523    -0.39385202
    7 N                    7.0000     1.29219916     2.01808598    -0.29691137
    8 H                    1.0000     0.75962005     2.70827987    -0.80768910
    9 C                    6.0000     0.85519192     1.71099313     1.07376571
   10 H                    1.0000     1.66882489     1.94575211     1.76229864
   11 C                    6.0000    -0.35585437     2.60784797     1.39921196
   12 H                    1.0000    -0.56918269     2.54584233     2.46657896
   13 H                    1.0000    -0.13722978     3.64752367     1.15686568
   14 C                    6.0000    -1.57967865     2.16075077     0.61646345
   15 O                    8.0000    -1.67382687     2.36882664    -0.58209299
   16 N                    7.0000    -2.47436932     1.43858993     1.24473197
   17 H                    1.0000    -3.11467383     0.90883636     0.66243198
   18 H                    1.0000    -2.33353828     1.17503786     2.20276377
   19 C                    6.0000     0.47588506     0.23032492     1.30416098
   20 O                    8.0000     0.39443977    -0.20664533     2.44728025
   21 N                    7.0000     0.19067862    -0.51574786     0.23262858
   22 H                    1.0000     0.26415082    -0.06973761    -0.66661427
   23 C                    6.0000    -0.24790844    -1.91417518     0.27556374
   24 H                    1.0000    -0.84979333    -2.05490830     1.17678389
   25 C                    6.0000    -1.15121569    -2.19282481    -0.94309101
   26 H                    1.0000    -0.53599055    -2.23829052    -1.84006476
   27 H                    1.0000    -1.63031400    -3.16424088    -0.81692590
   28 C                    6.0000    -2.24188087    -1.14891979    -1.12497762
   29 O                    8.0000    -3.07517348    -0.91521583    -0.26666830
   30 N                    7.0000    -2.24456975    -0.44136553    -2.22999516
   31 H                    1.0000    -1.58696298    -0.62076072    -2.96280530
   32 H                    1.0000    -2.91076672     0.31223008    -2.26865056
   33 C                    6.0000     0.92175875    -2.92020876     0.37166318
   34 O                    8.0000     0.70186396    -4.12458214     0.37390727
   35 N                    7.0000     2.17230982    -2.47105483     0.40940937
   36 H                    1.0000     2.91877179    -3.14295190     0.47453886
   37 H                    1.0000     2.36098090    -1.47869792     0.38580888

      Atomic Mass 
      ----------- 

      H                  1.007825
      C                 12.000000
      O                 15.994910
      N                 14.003070


 Effective nuclear repulsion energy (a.u.)    1760.6092132625

            Nuclear Dipole moment (a.u.) 
            ----------------------------
        X                 Y               Z
 ---------------- ---------------- ----------------
    -0.0000000000    -0.0000000000    -0.0000000000



                                Z-matrix (autoz)
                                -------- 

 Units are Angstrom for bonds and degrees for angles

      Type          Name      I     J     K     L     M      Value
      ----------- --------  ----- ----- ----- ----- ----- ----------
    1 Stretch                  1     2                       1.08913
    2 Stretch                  2     3                       1.08989
    3 Stretch                  2     4                       1.08776
    4 Stretch                  2     5                       1.50917
    5 Stretch                  5     6                       1.22340
    6 Stretch                  5     7                       1.33242
    7 Stretch                  7     8                       1.01040
    8 Stretch                  7     9                       1.47107
    9 Stretch                  9    10                       1.09142
   10 Stretch                  9    11                       1.54172
   11 Stretch                  9    19                       1.54575
   12 Stretch                 11    12                       1.09024
   13 Stretch                 11    13                       1.08970
   14 Stretch                 11    14                       1.51998
   15 Stretch                 14    15                       1.22012
   16 Stretch                 14    16                       1.31023
   17 Stretch                 16    17                       1.01474
   18 Stretch                 16    18                       1.00355
   19 Stretch                 19    20                       1.22650
   20 Stretch                 19    21                       1.33647
   21 Stretch                 21    22                       1.00646
   22 Stretch                 21    23                       1.46622
   23 Stretch                 23    24                       1.09283
   24 Stretch                 23    25                       1.54231
   25 Stretch                 23    33                       1.54579
   26 Stretch                 25    26                       1.08864
   27 Stretch                 25    27                       1.09046
   28 Stretch                 25    28                       1.52065
   29 Stretch                 28    29                       1.21889
   30 Stretch                 28    30                       1.31214
   31 Stretch                 30    31                       1.00082
   32 Stretch                 30    32                       1.00659
   33 Stretch                 33    34                       1.22429
   34 Stretch                 33    35                       1.32930
   35 Stretch                 35    36                       1.00643
   36 Stretch                 35    37                       1.01041
   37 Bend                     1     2     3               109.40859
   38 Bend                     1     2     4               109.82084
   39 Bend                     1     2     5               109.19744
   40 Bend                     2     5     6               120.39972
   41 Bend                     2     5     7               116.70899
   42 Bend                     3     2     4               109.73904
   43 Bend                     3     2     5               109.00204
   44 Bend                     4     2     5               109.65470
   45 Bend                     5     7     8               118.28746
   46 Bend                     5     7     9               124.51439
   47 Bend                     6     5     7               122.85343
   48 Bend                     7     9    10               108.75054
   49 Bend                     7     9    11               107.97499
   50 Bend                     7     9    19               114.31434
   51 Bend                     8     7     9               117.19616
   52 Bend                     9    11    12               109.10391
   53 Bend                     9    11    13               110.51634
   54 Bend                     9    11    14               110.64925
   55 Bend                     9    19    20               119.76793
   56 Bend                     9    19    21               117.87871
   57 Bend                    10     9    11               109.10457
   58 Bend                    10     9    19               107.15404
   59 Bend                    11     9    19               109.45174
   60 Bend                    11    14    15               121.18725
   61 Bend                    11    14    16               117.70971
   62 Bend                    12    11    13               108.13456
   63 Bend                    12    11    14               109.26231
   64 Bend                    13    11    14               109.12629
   65 Bend                    14    16    17               116.32483
   66 Bend                    14    16    18               120.44298
   67 Bend                    15    14    16               120.81971
   68 Bend                    17    16    18               119.95098
   69 Bend                    19    21    22               116.96145
   70 Bend                    19    21    23               124.94484
   71 Bend                    20    19    21               122.28971
   72 Bend                    21    23    24               108.16298
   73 Bend                    21    23    25               108.92758
   74 Bend                    21    23    33               113.34129
   75 Bend                    22    21    23               118.07702
   76 Bend                    23    25    26               109.12268
   77 Bend                    23    25    27               109.07769
   78 Bend                    23    25    28               112.98915
   79 Bend                    23    33    34               120.29443
   80 Bend                    23    33    35               119.58498
   81 Bend                    24    23    25               107.80467
   82 Bend                    24    23    33               106.35980
   83 Bend                    25    23    33               112.00660
   84 Bend                    25    28    29               122.52962
   85 Bend                    25    28    30               118.18892
   86 Bend                    26    25    27               107.84353
   87 Bend                    26    25    28               109.60004
   88 Bend                    27    25    28               108.07502
   89 Bend                    28    30    31               121.24022
   90 Bend                    28    30    32               115.93841
   91 Bend                    29    28    30               119.22423
   92 Bend                    31    30    32               122.74833
   93 Bend                    33    35    36               118.29544
   94 Bend                    33    35    37               120.45442
   95 Bend                    34    33    35               120.08671
   96 Bend                    36    35    37               121.24484
   97 Torsion                  1     2     5     6        -118.46056
   98 Torsion                  1     2     5     7          63.71401
   99 Torsion                  2     5     7     8           2.78269
  100 Torsion                  2     5     7     9        -176.68760
  101 Torsion                  3     2     5     6           1.01507
  102 Torsion                  3     2     5     7        -176.81036
  103 Torsion                  4     2     5     6         121.16704
  104 Torsion                  4     2     5     7         -56.65839
  105 Torsion                  5     7     9    10          59.71931
  106 Torsion                  5     7     9    11         177.98156
  107 Torsion                  5     7     9    19         -59.96136
  108 Torsion                  6     5     7     8        -174.98458
  109 Torsion                  6     5     7     9           5.54513
  110 Torsion                  7     9    11    12        -168.64358
  111 Torsion                  7     9    11    13         -49.87271
  112 Torsion                  7     9    11    14          71.11689
  113 Torsion                  7     9    19    20         163.40291
  114 Torsion                  7     9    19    21         -19.43179
  115 Torsion                  8     7     9    10        -119.75626
  116 Torsion                  8     7     9    11          -1.49401
  117 Torsion                  8     7     9    19         120.56307
  118 Torsion                  9    11    14    15         -73.29112
  119 Torsion                  9    11    14    16         100.64302
  120 Torsion                  9    19    21    22           1.53513
  121 Torsion                  9    19    21    23        -176.94519
  122 Torsion                 10     9    11    12         -50.60822
  123 Torsion                 10     9    11    13          68.16264
  124 Torsion                 10     9    11    14        -170.84776
  125 Torsion                 10     9    19    20          42.83081
  126 Torsion                 10     9    19    21        -140.00389
  127 Torsion                 11     9    19    20         -75.35153
  128 Torsion                 11     9    19    21         101.81376
  129 Torsion                 11    14    16    17        -161.14554
  130 Torsion                 11    14    16    18          -1.61148
  131 Torsion                 12    11     9    19          66.35093
  132 Torsion                 12    11    14    15         166.56406
  133 Torsion                 12    11    14    16         -19.50180
  134 Torsion                 13    11     9    19        -174.87820
  135 Torsion                 13    11    14    15          48.51933
  136 Torsion                 13    11    14    16        -137.54653
  137 Torsion                 14    11     9    19         -53.88860
  138 Torsion                 15    14    16    17          12.81203
  139 Torsion                 15    14    16    18         172.34608
  140 Torsion                 19    21    23    24          33.38853
  141 Torsion                 19    21    23    25         150.30567
  142 Torsion                 19    21    23    33         -84.28481
  143 Torsion                 20    19    21    22         178.62429
  144 Torsion                 20    19    21    23           0.14397
  145 Torsion                 21    23    25    26          73.11383
  146 Torsion                 21    23    25    27        -169.30045
  147 Torsion                 21    23    25    28         -49.07916
  148 Torsion                 21    23    33    34        -177.74564
  149 Torsion                 21    23    33    35           0.13912
  150 Torsion                 22    21    23    24        -145.07629
  151 Torsion                 22    21    23    25         -28.15915
  152 Torsion                 22    21    23    33          97.25037
  153 Torsion                 23    25    28    29         -58.92178
  154 Torsion                 23    25    28    30         118.30290
  155 Torsion                 23    33    35    36         179.83691
  156 Torsion                 23    33    35    37           0.66437
  157 Torsion                 24    23    25    26        -169.74106
  158 Torsion                 24    23    25    27         -52.15535
  159 Torsion                 24    23    25    28          68.06595
  160 Torsion                 24    23    33    34          63.53584
  161 Torsion                 24    23    33    35        -118.57940
  162 Torsion                 25    23    33    34         -54.00374
  163 Torsion                 25    23    33    35         123.88101
  164 Torsion                 25    28    30    31           4.02521
  165 Torsion                 25    28    30    32        -172.94935
  166 Torsion                 26    25    23    33         -53.06895
  167 Torsion                 26    25    28    29         179.15307
  168 Torsion                 26    25    28    30          -3.62226
  169 Torsion                 27    25    23    33          64.51676
  170 Torsion                 27    25    28    29          61.87144
  171 Torsion                 27    25    28    30        -120.90389
  172 Torsion                 28    25    23    33        -175.26194
  173 Torsion                 29    28    30    31        -178.65590
  174 Torsion                 29    28    30    32           4.36954
  175 Torsion                 34    33    35    36          -2.27388
  176 Torsion                 34    33    35    37         178.55358


            XYZ format geometry
            -------------------
    37
 geometry
 H                     2.96002626     3.00931195    -2.22256265
 C                     2.67733995     1.95915929    -2.28145934
 H                     3.51296986     1.38068087    -2.67508909
 H                     1.81312703     1.84576300    -2.93223297
 C                     2.34065591     1.45755703    -0.89847994
 O                     2.98900655     0.55108523    -0.39385202
 N                     1.29219916     2.01808598    -0.29691137
 H                     0.75962005     2.70827987    -0.80768910
 C                     0.85519192     1.71099313     1.07376571
 H                     1.66882489     1.94575211     1.76229864
 C                    -0.35585437     2.60784797     1.39921196
 H                    -0.56918269     2.54584233     2.46657896
 H                    -0.13722978     3.64752367     1.15686568
 C                    -1.57967865     2.16075077     0.61646345
 O                    -1.67382687     2.36882664    -0.58209299
 N                    -2.47436932     1.43858993     1.24473197
 H                    -3.11467383     0.90883636     0.66243198
 H                    -2.33353828     1.17503786     2.20276377
 C                     0.47588506     0.23032492     1.30416098
 O                     0.39443977    -0.20664533     2.44728025
 N                     0.19067862    -0.51574786     0.23262858
 H                     0.26415082    -0.06973761    -0.66661427
 C                    -0.24790844    -1.91417518     0.27556374
 H                    -0.84979333    -2.05490830     1.17678389
 C                    -1.15121569    -2.19282481    -0.94309101
 H                    -0.53599055    -2.23829052    -1.84006476
 H                    -1.63031400    -3.16424088    -0.81692590
 C                    -2.24188087    -1.14891979    -1.12497762
 O                    -3.07517348    -0.91521583    -0.26666830
 N                    -2.24456975    -0.44136553    -2.22999516
 H                    -1.58696298    -0.62076072    -2.96280530
 H                    -2.91076672     0.31223008    -2.26865056
 C                     0.92175875    -2.92020876     0.37166318
 O                     0.70186396    -4.12458214     0.37390727
 N                     2.17230982    -2.47105483     0.40940937
 H                     2.91877179    -3.14295190     0.47453886
 H                     2.36098090    -1.47869792     0.38580888

 ==============================================================================
                                internuclear distances
 ------------------------------------------------------------------------------
       center one      |      center two      | atomic units |  angstroms
 ------------------------------------------------------------------------------
    2 C                |   1 H                |     2.05815  |     1.08913
    3 H                |   2 C                |     2.05959  |     1.08989
    4 H                |   2 C                |     2.05557  |     1.08776
    5 C                |   2 C                |     2.85192  |     1.50917
    6 O                |   5 C                |     2.31188  |     1.22340
    7 N                |   5 C                |     2.51791  |     1.33242
    8 H                |   7 N                |     1.90937  |     1.01040
    9 C                |   7 N                |     2.77991  |     1.47107
   10 H                |   9 C                |     2.06248  |     1.09142
   11 C                |   9 C                |     2.91343  |     1.54172
   12 H                |  11 C                |     2.06026  |     1.09024
   13 H                |  11 C                |     2.05924  |     1.08970
   14 C                |  11 C                |     2.87234  |     1.51998
   15 O                |  14 C                |     2.30570  |     1.22012
   16 N                |  14 C                |     2.47598  |     1.31023
   17 H                |  16 N                |     1.91758  |     1.01474
   18 H                |  16 N                |     1.89644  |     1.00355
   19 C                |   9 C                |     2.92104  |     1.54575
   20 O                |  19 C                |     2.31775  |     1.22650
   21 N                |  19 C                |     2.52556  |     1.33647
   22 H                |  21 N                |     1.90193  |     1.00646
   23 C                |  21 N                |     2.77075  |     1.46622
   24 H                |  23 C                |     2.06514  |     1.09283
   25 C                |  23 C                |     2.91455  |     1.54231
   26 H                |  25 C                |     2.05723  |     1.08864
   27 H                |  25 C                |     2.06067  |     1.09046
   28 C                |  25 C                |     2.87361  |     1.52065
   29 O                |  28 C                |     2.30337  |     1.21889
   30 N                |  28 C                |     2.47958  |     1.31214
   31 H                |  30 N                |     1.89127  |     1.00082
   32 H                |  30 N                |     1.90218  |     1.00659
   33 C                |  23 C                |     2.92112  |     1.54579
   34 O                |  33 C                |     2.31356  |     1.22429
   35 N                |  33 C                |     2.51202  |     1.32930
   36 H                |  35 N                |     1.90187  |     1.00643
   37 H                |  35 N                |     1.90940  |     1.01041
 ------------------------------------------------------------------------------
                         number of included internuclear distances:         36
 ==============================================================================



 ==============================================================================
                                 internuclear angles
 ------------------------------------------------------------------------------
        center 1       |       center 2       |       center 3       |  degrees
 ------------------------------------------------------------------------------
    1 H                |   2 C                |   3 H                |   109.41
    1 H                |   2 C                |   4 H                |   109.82
    1 H                |   2 C                |   5 C                |   109.20
    3 H                |   2 C                |   4 H                |   109.74
    3 H                |   2 C                |   5 C                |   109.00
    4 H                |   2 C                |   5 C                |   109.65
    2 C                |   5 C                |   6 O                |   120.40
    2 C                |   5 C                |   7 N                |   116.71
    6 O                |   5 C                |   7 N                |   122.85
    5 C                |   7 N                |   8 H                |   118.29
    5 C                |   7 N                |   9 C                |   124.51
    8 H                |   7 N                |   9 C                |   117.20
    7 N                |   9 C                |  10 H                |   108.75
    7 N                |   9 C                |  11 C                |   107.97
    7 N                |   9 C                |  19 C                |   114.31
   10 H                |   9 C                |  11 C                |   109.10
   10 H                |   9 C                |  19 C                |   107.15
   11 C                |   9 C                |  19 C                |   109.45
    9 C                |  11 C                |  12 H                |   109.10
    9 C                |  11 C                |  13 H                |   110.52
    9 C                |  11 C                |  14 C                |   110.65
   12 H                |  11 C                |  13 H                |   108.13
   12 H                |  11 C                |  14 C                |   109.26
   13 H                |  11 C                |  14 C                |   109.13
   11 C                |  14 C                |  15 O                |   121.19
   11 C                |  14 C                |  16 N                |   117.71
   15 O                |  14 C                |  16 N                |   120.82
   14 C                |  16 N                |  17 H                |   116.32
   14 C                |  16 N                |  18 H                |   120.44
   17 H                |  16 N                |  18 H                |   119.95
    9 C                |  19 C                |  20 O                |   119.77
    9 C                |  19 C                |  21 N                |   117.88
   20 O                |  19 C                |  21 N                |   122.29
   19 C                |  21 N                |  22 H                |   116.96
   19 C                |  21 N                |  23 C                |   124.94
   22 H                |  21 N                |  23 C                |   118.08
   21 N                |  23 C                |  24 H                |   108.16
   21 N                |  23 C                |  25 C                |   108.93
   21 N                |  23 C                |  33 C                |   113.34
   24 H                |  23 C                |  25 C                |   107.80
   24 H                |  23 C                |  33 C                |   106.36
   25 C                |  23 C                |  33 C                |   112.01
   23 C                |  25 C                |  26 H                |   109.12
   23 C                |  25 C                |  27 H                |   109.08
   23 C                |  25 C                |  28 C                |   112.99
   26 H                |  25 C                |  27 H                |   107.84
   26 H                |  25 C                |  28 C                |   109.60
   27 H                |  25 C                |  28 C                |   108.08
   25 C                |  28 C                |  29 O                |   122.53
   25 C                |  28 C                |  30 N                |   118.19
   29 O                |  28 C                |  30 N                |   119.22
   28 C                |  30 N                |  31 H                |   121.24
   28 C                |  30 N                |  32 H                |   115.94
   31 H                |  30 N                |  32 H                |   122.75
   23 C                |  33 C                |  34 O                |   120.29
   23 C                |  33 C                |  35 N                |   119.58
   34 O                |  33 C                |  35 N                |   120.09
   33 C                |  35 N                |  36 H                |   118.30
   33 C                |  35 N                |  37 H                |   120.45
   36 H                |  35 N                |  37 H                |   121.24
 ------------------------------------------------------------------------------
                            number of included internuclear angles:         60
 ==============================================================================



  library name resolved from: environment
  library file name is: </opt/rit/el9/20230413/app/linux-rhel9-x86_64_v3/gcc-11.2.1/nwchem-7.2.0-oxtctbuhfuzyfaoziquq6bki22grib3g/share/nwchem/libraries/>
  


 Summary of "ao basis" -> "" (cartesian)
 ------------------------------------------------------------------------------
       Tag                 Description            Shells   Functions and Types
 ---------------- ------------------------------  ------  ---------------------
 *                        aug-cc-pvdz                 on all atoms 


                      Basis "ao basis" -> "ao basis" (cartesian)
                      -----
  H (Hydrogen)
  ------------
            Exponent  Coefficients 
       -------------- ---------------------------------------------------------
  1 S  1.30100000E+01  0.019685
  1 S  1.96200000E+00  0.137977
  1 S  4.44600000E-01  0.478148

  2 S  1.22000000E-01  1.000000

  3 S  2.97400000E-02  1.000000

  4 P  7.27000000E-01  1.000000

  5 P  1.41000000E-01  1.000000

  C (Carbon)
  ----------
            Exponent  Coefficients 
       -------------- ---------------------------------------------------------
  1 S  6.66500000E+03  0.000692
  1 S  1.00000000E+03  0.005329
  1 S  2.28000000E+02  0.027077
  1 S  6.47100000E+01  0.101718
  1 S  2.10600000E+01  0.274740
  1 S  7.49500000E+00  0.448564
  1 S  2.79700000E+00  0.285074
  1 S  5.21500000E-01  0.015204

  2 S  6.66500000E+03 -0.000146
  2 S  1.00000000E+03 -0.001154
  2 S  2.28000000E+02 -0.005725
  2 S  6.47100000E+01 -0.023312
  2 S  2.10600000E+01 -0.063955
  2 S  7.49500000E+00 -0.149981
  2 S  2.79700000E+00 -0.127262
  2 S  5.21500000E-01  0.544529

  3 S  1.59600000E-01  1.000000

  4 S  4.69000000E-02  1.000000

  5 P  9.43900000E+00  0.038109
  5 P  2.00200000E+00  0.209480
  5 P  5.45600000E-01  0.508557

  6 P  1.51700000E-01  1.000000

  7 P  4.04100000E-02  1.000000

  8 D  5.50000000E-01  1.000000

  9 D  1.51000000E-01  1.000000

  O (Oxygen)
  ----------
            Exponent  Coefficients 
       -------------- ---------------------------------------------------------
  1 S  1.17200000E+04  0.000710
  1 S  1.75900000E+03  0.005470
  1 S  4.00800000E+02  0.027837
  1 S  1.13700000E+02  0.104800
  1 S  3.70300000E+01  0.283062
  1 S  1.32700000E+01  0.448719
  1 S  5.02500000E+00  0.270952
  1 S  1.01300000E+00  0.015458

  2 S  1.17200000E+04 -0.000160
  2 S  1.75900000E+03 -0.001263
  2 S  4.00800000E+02 -0.006267
  2 S  1.13700000E+02 -0.025716
  2 S  3.70300000E+01 -0.070924
  2 S  1.32700000E+01 -0.165411
  2 S  5.02500000E+00 -0.116955
  2 S  1.01300000E+00  0.557368

  3 S  3.02300000E-01  1.000000

  4 S  7.89600000E-02  1.000000

  5 P  1.77000000E+01  0.043018
  5 P  3.85400000E+00  0.228913
  5 P  1.04600000E+00  0.508728

  6 P  2.75300000E-01  1.000000

  7 P  6.85600000E-02  1.000000

  8 D  1.18500000E+00  1.000000

  9 D  3.32000000E-01  1.000000

  N (Nitrogen)
  ------------
            Exponent  Coefficients 
       -------------- ---------------------------------------------------------
  1 S  9.04600000E+03  0.000700
  1 S  1.35700000E+03  0.005389
  1 S  3.09300000E+02  0.027406
  1 S  8.77300000E+01  0.103207
  1 S  2.85600000E+01  0.278723
  1 S  1.02100000E+01  0.448540
  1 S  3.83800000E+00  0.278238
  1 S  7.46600000E-01  0.015440

  2 S  9.04600000E+03 -0.000153
  2 S  1.35700000E+03 -0.001208
  2 S  3.09300000E+02 -0.005992
  2 S  8.77300000E+01 -0.024544
  2 S  2.85600000E+01 -0.067459
  2 S  1.02100000E+01 -0.158078
  2 S  3.83800000E+00 -0.121831
  2 S  7.46600000E-01  0.549003

  3 S  2.24800000E-01  1.000000

  4 S  6.12400000E-02  1.000000

  5 P  1.35500000E+01  0.039919
  5 P  2.91700000E+00  0.217169
  5 P  7.97300000E-01  0.510319

  6 P  2.18500000E-01  1.000000

  7 P  5.61100000E-02  1.000000

  8 D  8.17000000E-01  1.000000

  9 D  2.30000000E-01  1.000000



 Summary of "ao basis" -> "ao basis" (cartesian)
 ------------------------------------------------------------------------------
       Tag                 Description            Shells   Functions and Types
 ---------------- ------------------------------  ------  ---------------------
 H                        aug-cc-pvdz                5        9   3s2p
 C                        aug-cc-pvdz                9       25   4s3p2d
 O                        aug-cc-pvdz                9       25   4s3p2d
 N                        aug-cc-pvdz                9       25   4s3p2d


                                 NWChem SCF Module
                                 -----------------



  ao basis        = "ao basis"
  functions       =   653
  atoms           =    37
  closed shells   =    76
  open shells     =     0
  charge          =   0.00
  wavefunction    = RHF 
  input vectors   = atomic
  output vectors  = ./ASN_ASN_3.movecs
  use symmetry    = F
  symmetry adapt  = F


 Summary of "ao basis" -> "ao basis" (cartesian)
 ------------------------------------------------------------------------------
       Tag                 Description            Shells   Functions and Types
 ---------------- ------------------------------  ------  ---------------------
 H                        aug-cc-pvdz                5        9   3s2p
 C                        aug-cc-pvdz                9       25   4s3p2d
 O                        aug-cc-pvdz                9       25   4s3p2d
 N                        aug-cc-pvdz                9       25   4s3p2d



 Forming initial guess at       0.8s


 !! The overlap matrix has   5 vectors deemed linearly dependent with
    eigenvalues:
 3.08D-06 3.73D-06 5.60D-06 7.26D-06 8.05D-06


      Superposition of Atomic Density Guess
      -------------------------------------

 Sum of atomic energies:       -1030.50653915

      Non-variational initial energy
      ------------------------------

 Total energy =   -1043.153654
 1-e energy   =   -4905.031915
 2-e energy   =    2101.269048
 HOMO         =      -0.308639
 LUMO         =       0.008606


 Starting SCF solution at     281.4s



 ----------------------------------------------
         Quadratically convergent ROHF

 Convergence threshold     :          1.000E-04
 Maximum no. of iterations :           30
 Final Fock-matrix accuracy:          1.000E-10
 ----------------------------------------------


              iter       energy          gnorm     gmax       time
             ----- ------------------- --------- --------- --------
                 1    -1034.8735216794  2.97D+00  1.70D-01    578.4
                 2    -1035.3294082240  9.33D-01  3.84D-02   1175.2
                 3    -1035.4066983314  8.01D-02  3.76D-03   2031.8
                 4    -1035.4076418285  5.22D-03  3.28D-04   3168.3
                 5    -1035.4076469966  9.95D-06  4.02D-07   5141.2


       Final RHF  results 
       ------------------ 

         Total SCF energy =  -1035.407646996575
      One-electron energy =  -4917.840538093012
      Two-electron energy =   2121.823677833909
 Nuclear repulsion energy =   1760.609213262528

        Time for solution =   4861.1s


             Final eigenvalues
             -----------------

              1      
    1  -20.5510
    2  -20.5432
    3  -20.5374
    4  -20.5367
    5  -20.5173
    6  -15.6227
    7  -15.6137
    8  -15.6117
    9  -15.5934
   10  -15.5832
   11  -11.3799
   12  -11.3765
   13  -11.3726
   14  -11.3671
   15  -11.3550
   16  -11.3271
   17  -11.3115
   18  -11.2792
   19  -11.2717
   20  -11.2635
   21   -1.4169
   22   -1.4106
   23   -1.4050
   24   -1.4010
   25   -1.3798
   26   -1.2769
   27   -1.2592
   28   -1.2442
   29   -1.2327
   30   -1.2067
   31   -1.0992
   32   -1.0722
   33   -1.0226
   34   -0.9595
   35   -0.9286
   36   -0.8441
   37   -0.8231
   38   -0.8180
   39   -0.8067
   40   -0.7952
   41   -0.7616
   42   -0.7456
   43   -0.7410
   44   -0.7335
   45   -0.7120
   46   -0.6990
   47   -0.6914
   48   -0.6847
   49   -0.6620
   50   -0.6507
   51   -0.6399
   52   -0.6297
   53   -0.6215
   54   -0.6111
   55   -0.6053
   56   -0.5994
   57   -0.5958
   58   -0.5860
   59   -0.5785
   60   -0.5727
   61   -0.5651
   62   -0.5621
   63   -0.5460
   64   -0.5414
   65   -0.5326
   66   -0.5139
   67   -0.4593
   68   -0.4519
   69   -0.4457
   70   -0.4432
   71   -0.4390
   72   -0.4362
   73   -0.4152
   74   -0.4102
   75   -0.4018
   76   -0.3951
   77    0.0185
   78    0.0285
   79    0.0373
   80    0.0424
   81    0.0500
   82    0.0530
   83    0.0562
   84    0.0569
   85    0.0618
   86    0.0698

                       ROHF Final Molecular Orbital Analysis
                       -------------------------------------

 Vector   21  Occ=2.000000D+00  E=-1.416870D+00
              MO Center=  1.9D+00,  8.6D-01, -1.8D-01, r^2= 3.8D+00
   Bfn.  Coefficient  Atom+Function         Bfn.  Coefficient  Atom+Function  
  ----- ------------  ---------------      ----- ------------  ---------------
    80      0.305309   6 O  s                79      0.303045   6 O  s         
    54      0.217393   5 C  s               309      0.157431  19 C  s         
    12      0.153917   2 C  s         

 Vector   22  Occ=2.000000D+00  E=-1.410595D+00
              MO Center= -2.2D+00, -5.5D-01, -6.3D-01, r^2= 4.1D+00
   Bfn.  Coefficient  Atom+Function         Bfn.  Coefficient  Atom+Function  
  ----- ------------  ---------------      ----- ------------  ---------------
   495      0.337752  29 O  s               494      0.316703  29 O  s         
   469      0.228576  28 C  s         

 Vector   23  Occ=2.000000D+00  E=-1.404969D+00
              MO Center= -1.3D+00,  1.5D+00, -4.5D-02, r^2= 4.5D+00
   Bfn.  Coefficient  Atom+Function         Bfn.  Coefficient  Atom+Function  
  ----- ------------  ---------------      ----- ------------  ---------------
   241      0.317071  15 O  s               240      0.297549  15 O  s         
   215      0.211345  14 C  s         

 Vector   24  Occ=2.000000D+00  E=-1.401001D+00
              MO Center=  2.0D-01,  2.5D-01,  1.3D+00, r^2= 3.8D+00
   Bfn.  Coefficient  Atom+Function         Bfn.  Coefficient  Atom+Function  
  ----- ------------  ---------------      ----- ------------  ---------------
   334      0.337050  20 O  s               333      0.304894  20 O  s         
   308      0.214458  19 C  s               241     -0.162360  15 O  s         

 Vector   25  Occ=2.000000D+00  E=-1.379834D+00
              MO Center=  8.8D-01, -3.5D+00,  4.2D-01, r^2= 1.3D+00
   Bfn.  Coefficient  Atom+Function         Bfn.  Coefficient  Atom+Function  
  ----- ------------  ---------------      ----- ------------  ---------------
   588      0.376800  34 O  s               587      0.348501  34 O  s         
   562      0.244228  33 C  s         

 Vector   26  Occ=2.000000D+00  E=-1.276862D+00
              MO Center=  1.1D+00,  1.1D+00,  8.9D-02, r^2= 3.4D+00
   Bfn.  Coefficient  Atom+Function         Bfn.  Coefficient  Atom+Function  
  ----- ------------  ---------------      ----- ------------  ---------------
   105      0.353091   7 N  s               104      0.284397   7 N  s         
    80     -0.188671   6 O  s               334     -0.181668  20 O  s         
   358      0.167424  21 N  s                79     -0.160981   6 O  s         

 Vector   27  Occ=2.000000D+00  E=-1.259229D+00
              MO Center=  5.4D-01, -6.6D-02,  2.2D-01, r^2= 4.0D+00
   Bfn.  Coefficient  Atom+Function         Bfn.  Coefficient  Atom+Function  
  ----- ------------  ---------------      ----- ------------  ---------------
   359      0.319688  21 N  s               358      0.285652  21 N  s         
   105     -0.210200   7 N  s               104     -0.191060   7 N  s         
   334     -0.158137  20 O  s         

 Vector   28  Occ=2.000000D+00  E=-1.244244D+00
              MO Center= -2.2D+00, -5.4D-01, -1.7D+00, r^2= 2.1D+00
   Bfn.  Coefficient  Atom+Function         Bfn.  Coefficient  Atom+Function  
  ----- ------------  ---------------      ----- ------------  ---------------
   520      0.374873  30 N  s               519      0.357294  30 N  s         
   427     -0.232601  25 C  s               495     -0.232947  29 O  s         
   474     -0.195268  28 C  pz              494     -0.186563  29 O  s         
   543      0.167018  31 H  s         

 Vector   29  Occ=2.000000D+00  E=-1.232724D+00
              MO Center= -2.2D+00,  1.6D+00,  8.6D-01, r^2= 1.7D+00
   Bfn.  Coefficient  Atom+Function         Bfn.  Coefficient  Atom+Function  
  ----- ------------  ---------------      ----- ------------  ---------------
   265      0.358264  16 N  s               266      0.335698  16 N  s         
   173     -0.257037  11 C  s               241     -0.218395  15 O  s         
   240     -0.183961  15 O  s               220      0.180554  14 C  pz        
   298      0.164380  18 H  s               217      0.163401  14 C  s         

 Vector   30  Occ=2.000000D+00  E=-1.206687D+00
              MO Center=  1.8D+00, -2.5D+00,  4.0D-01, r^2= 1.7D+00
   Bfn.  Coefficient  Atom+Function         Bfn.  Coefficient  Atom+Function  
  ----- ------------  ---------------      ----- ------------  ---------------
   613      0.392907  35 N  s               612      0.367664  35 N  s         
   393     -0.282074  23 C  s               588     -0.196801  34 O  s         
   568     -0.177232  33 C  px              587     -0.169624  34 O  s         
   645      0.161963  37 H  s               636      0.158090  36 H  s         
   565      0.154682  33 C  px        

 Vector   31  Occ=2.000000D+00  E=-1.099210D+00
              MO Center=  4.2D-01,  1.3D+00,  4.6D-01, r^2= 5.7D+00
   Bfn.  Coefficient  Atom+Function         Bfn.  Coefficient  Atom+Function  
  ----- ------------  ---------------      ----- ------------  ---------------
   138      0.212217   9 C  s               172      0.212806  11 C  s         
   139      0.154972   9 C  s         

 Vector   32  Occ=2.000000D+00  E=-1.072172D+00
              MO Center= -5.8D-01, -1.0D+00, -2.1D-01, r^2= 5.6D+00
   Bfn.  Coefficient  Atom+Function         Bfn.  Coefficient  Atom+Function  
  ----- ------------  ---------------      ----- ------------  ---------------
   426      0.260845  25 C  s               427      0.194021  25 C  s         
   392      0.191555  23 C  s         

 Vector   33  Occ=2.000000D+00  E=-1.022579D+00
              MO Center=  2.0D+00,  2.0D+00, -1.4D+00, r^2= 4.8D+00
   Bfn.  Coefficient  Atom+Function         Bfn.  Coefficient  Atom+Function  
  ----- ------------  ---------------      ----- ------------  ---------------
    11      0.323114   2 C  s               173      0.305054  11 C  s         
   174      0.177754  11 C  s                12      0.161673   2 C  s         
    59     -0.158198   5 C  pz              172      0.154023  11 C  s         

 Vector   34  Occ=2.000000D+00  E=-9.595039D-01
              MO Center= -3.3D-01, -4.3D-01, -1.2D-02, r^2= 7.4D+00
   Bfn.  Coefficient  Atom+Function         Bfn.  Coefficient  Atom+Function  
  ----- ------------  ---------------      ----- ------------  ---------------
   427      0.254832  25 C  s               432     -0.205445  25 C  px        
   145     -0.199734   9 C  py              398     -0.185650  23 C  px        
   173     -0.181187  11 C  s               426      0.180443  25 C  s         
   392     -0.164643  23 C  s         

 Vector   35  Occ=2.000000D+00  E=-9.285657D-01
              MO Center=  8.0D-02,  4.3D-01,  3.3D-01, r^2= 8.2D+00
   Bfn.  Coefficient  Atom+Function         Bfn.  Coefficient  Atom+Function  
  ----- ------------  ---------------      ----- ------------  ---------------
   173      0.266285  11 C  s               138     -0.200877   9 C  s         
   178     -0.187027  11 C  px              427      0.164382  25 C  s         
   392     -0.151788  23 C  s               393     -0.151304  23 C  s         

 Vector   36  Occ=2.000000D+00  E=-8.440633D-01
              MO Center=  6.7D-01,  7.9D-01,  1.5D-01, r^2= 6.3D+00
   Bfn.  Coefficient  Atom+Function         Bfn.  Coefficient  Atom+Function  
  ----- ------------  ---------------      ----- ------------  ---------------
   139      0.310766   9 C  s               393      0.230074  23 C  s         
   107      0.197251   7 N  px              128     -0.162961   8 H  s         
   178     -0.157379  11 C  px              308      0.157141  19 C  s         
    54      0.151203   5 C  s         

 Vector   37  Occ=2.000000D+00  E=-8.231292D-01
              MO Center= -1.2D+00, -7.3D-01, -1.2D+00, r^2= 6.8D+00
   Bfn.  Coefficient  Atom+Function         Bfn.  Coefficient  Atom+Function  
  ----- ------------  ---------------      ----- ------------  ---------------
   524      0.273822  30 N  pz              469      0.207712  28 C  s         
   543     -0.197278  31 H  s               523     -0.164342  30 N  py        

 Vector   38  Occ=2.000000D+00  E=-8.179600D-01
              MO Center=  2.5D-01,  5.2D-01, -1.6D-01, r^2= 6.4D+00
   Bfn.  Coefficient  Atom+Function         Bfn.  Coefficient  Atom+Function  
  ----- ------------  ---------------      ----- ------------  ---------------
   363      0.222028  21 N  pz              105      0.193383   7 N  s         
   128      0.190951   8 H  s               359     -0.188860  21 N  s         
   107     -0.181415   7 N  px              145     -0.159387   9 C  py        
   382     -0.159342  22 H  s               393      0.152751  23 C  s         

 Vector   39  Occ=2.000000D+00  E=-8.066515D-01
              MO Center= -1.4D+00,  1.4D+00,  8.6D-01, r^2= 4.8D+00
   Bfn.  Coefficient  Atom+Function         Bfn.  Coefficient  Atom+Function  
  ----- ------------  ---------------      ----- ------------  ---------------
   215      0.209852  14 C  s               298     -0.205219  18 H  s         
   269      0.195618  16 N  py              268      0.186891  16 N  px        
   270     -0.178264  16 N  pz              217     -0.168523  14 C  s         
   309     -0.160858  19 C  s               216      0.159259  14 C  s         
   241     -0.153326  15 O  s         

 Vector   40  Occ=2.000000D+00  E=-7.951971D-01
              MO Center=  8.0D-01, -1.9D+00,  1.7D-01, r^2= 5.0D+00
   Bfn.  Coefficient  Atom+Function         Bfn.  Coefficient  Atom+Function  
  ----- ------------  ---------------      ----- ------------  ---------------
   615      0.278517  35 N  px              309      0.247951  19 C  s         
   399      0.246285  23 C  py              568     -0.219461  33 C  px        
   562     -0.199612  33 C  s               359     -0.190223  21 N  s         
   636      0.173435  36 H  s               382     -0.169038  22 H  s         
   581     -0.169564  33 C  dxy             588      0.163445  34 O  s         

 Vector   41  Occ=2.000000D+00  E=-7.615531D-01
              MO Center= -1.2D+00, -3.7D-01, -1.0D+00, r^2= 6.5D+00
   Bfn.  Coefficient  Atom+Function         Bfn.  Coefficient  Atom+Function  
  ----- ------------  ---------------      ----- ------------  ---------------
   543      0.249344  31 H  s               522      0.241766  30 N  px        
   552     -0.215416  32 H  s               309      0.207132  19 C  s         
   399      0.181919  23 C  py              145      0.159371   9 C  py        
   524     -0.155613  30 N  pz        

 Vector   42  Occ=2.000000D+00  E=-7.455591D-01
              MO Center= -9.6D-01,  2.5D-01,  1.4D-01, r^2= 9.3D+00
   Bfn.  Coefficient  Atom+Function         Bfn.  Coefficient  Atom+Function  
  ----- ------------  ---------------      ----- ------------  ---------------
   270      0.247006  16 N  pz              298      0.205890  18 H  s         
   309     -0.168854  19 C  s               552     -0.162442  32 H  s         
   616      0.162715  35 N  py              522      0.157677  30 N  px        
   289     -0.154731  17 H  s         

 Vector   43  Occ=2.000000D+00  E=-7.410245D-01
              MO Center=  4.1D-01, -1.0D+00,  4.5D-01, r^2= 8.8D+00
   Bfn.  Coefficient  Atom+Function         Bfn.  Coefficient  Atom+Function  
  ----- ------------  ---------------      ----- ------------  ---------------
   616      0.296153  35 N  py              645      0.246524  37 H  s         
   564      0.206754  33 C  s               399     -0.177946  23 C  py        
   270     -0.172001  16 N  pz              646      0.167487  37 H  s         

 Vector   44  Occ=2.000000D+00  E=-7.334842D-01
              MO Center=  5.2D-01,  1.2D+00,  5.5D-02, r^2= 6.9D+00
   Bfn.  Coefficient  Atom+Function         Bfn.  Coefficient  Atom+Function  
  ----- ------------  ---------------      ----- ------------  ---------------
   146     -0.309506   9 C  pz              145      0.302232   9 C  py        
   309      0.244203  19 C  s               109      0.234632   7 N  pz        
    55      0.203818   5 C  s               128     -0.193912   8 H  s         
   105     -0.178782   7 N  s               315      0.166758  19 C  py        
   139     -0.165374   9 C  s               312     -0.157143  19 C  py        

 Vector   45  Occ=2.000000D+00  E=-7.120125D-01
              MO Center= -2.8D-01,  6.2D-01,  3.4D-01, r^2= 8.7D+00
   Bfn.  Coefficient  Atom+Function         Bfn.  Coefficient  Atom+Function  
  ----- ------------  ---------------      ----- ------------  ---------------
   289     -0.158886  17 H  s               143      0.154563   9 C  pz        

 Vector   46  Occ=2.000000D+00  E=-6.990092D-01
              MO Center=  2.0D+00,  8.2D-01, -6.1D-01, r^2= 6.5D+00
   Bfn.  Coefficient  Atom+Function         Bfn.  Coefficient  Atom+Function  
  ----- ------------  ---------------      ----- ------------  ---------------
    80      0.230446   6 O  s                84      0.230241   6 O  pz        
    57     -0.202062   5 C  px               83     -0.194131   6 O  py        
    16     -0.178478   2 C  pz               19     -0.173819   2 C  pz        
    54     -0.152298   5 C  s         

 Vector   47  Occ=2.000000D+00  E=-6.914272D-01
              MO Center= -1.2D+00, -1.1D+00, -3.4D-01, r^2= 6.3D+00
   Bfn.  Coefficient  Atom+Function         Bfn.  Coefficient  Atom+Function  
  ----- ------------  ---------------      ----- ------------  ---------------
   497     -0.199175  29 O  px              474     -0.194700  28 C  pz        
   450      0.190037  26 H  s               429      0.185291  25 C  px        
   495      0.160037  29 O  s         

 Vector   48  Occ=2.000000D+00  E=-6.846876D-01
              MO Center= -2.8D-01, -1.7D-01,  3.5D-01, r^2= 9.5D+00
   Bfn.  Coefficient  Atom+Function         Bfn.  Coefficient  Atom+Function  
  ----- ------------  ---------------      ----- ------------  ---------------
   245      0.158755  15 O  pz              218      0.153643  14 C  px        
   396      0.152272  23 C  py              565      0.151886  33 C  px        
   615     -0.151796  35 N  px              636     -0.151767  36 H  s         
   399      0.150809  23 C  py        

 Vector   49  Occ=2.000000D+00  E=-6.619746D-01
              MO Center= -1.1D-01,  9.1D-01,  9.7D-02, r^2= 9.0D+00
   Bfn.  Coefficient  Atom+Function         Bfn.  Coefficient  Atom+Function  
  ----- ------------  ---------------      ----- ------------  ---------------
   245      0.238301  15 O  pz              173     -0.192382  11 C  s         
   241     -0.160892  15 O  s         

 Vector   50  Occ=2.000000D+00  E=-6.506927D-01
              MO Center=  4.7D-01,  6.4D-01,  6.3D-01, r^2= 8.3D+00
   Bfn.  Coefficient  Atom+Function         Bfn.  Coefficient  Atom+Function  
  ----- ------------  ---------------      ----- ------------  ---------------
   338      0.227331  20 O  pz              334      0.188751  20 O  s         
   313     -0.166505  19 C  pz               58      0.159033   5 C  py        

 Vector   51  Occ=2.000000D+00  E=-6.399098D-01
              MO Center=  1.2D+00,  7.7D-01, -9.3D-01, r^2= 9.3D+00
   Bfn.  Coefficient  Atom+Function         Bfn.  Coefficient  Atom+Function  
  ----- ------------  ---------------      ----- ------------  ---------------
   139      0.244830   9 C  s                 1     -0.187795   1 H  s         
    14     -0.188008   2 C  px               44      0.169138   4 H  s         
    15     -0.163301   2 C  py               83     -0.153532   6 O  py        

 Vector   52  Occ=2.000000D+00  E=-6.297494D-01
              MO Center= -3.2D-01, -6.4D-01,  1.7D-01, r^2= 9.8D+00
   Bfn.  Coefficient  Atom+Function         Bfn.  Coefficient  Atom+Function  
  ----- ------------  ---------------      ----- ------------  ---------------
   591      0.173950  34 O  py              395      0.161281  23 C  px        
   427      0.159941  25 C  s               495     -0.157688  29 O  s         

 Vector   53  Occ=2.000000D+00  E=-6.214996D-01
              MO Center= -5.8D-01, -5.1D-01, -6.0D-01, r^2= 9.4D+00
   Bfn.  Coefficient  Atom+Function         Bfn.  Coefficient  Atom+Function  
  ----- ------------  ---------------      ----- ------------  ---------------
   472      0.177204  28 C  px              430      0.164058  25 C  py        
   459     -0.154367  27 H  s         

 Vector   54  Occ=2.000000D+00  E=-6.110545D-01
              MO Center= -1.9D-01, -1.1D+00,  3.9D-01, r^2= 9.1D+00
   Bfn.  Coefficient  Atom+Function         Bfn.  Coefficient  Atom+Function  
  ----- ------------  ---------------      ----- ------------  ---------------
   338      0.227505  20 O  pz              591     -0.222837  34 O  py        
   313     -0.183057  19 C  pz              499     -0.173478  29 O  pz        
   174     -0.152092  11 C  s               334      0.152814  20 O  s         

 Vector   55  Occ=2.000000D+00  E=-6.052767D-01
              MO Center= -5.3D-01, -1.5D-01, -1.9D-03, r^2= 8.8D+00
   Bfn.  Coefficient  Atom+Function         Bfn.  Coefficient  Atom+Function  
  ----- ------------  ---------------      ----- ------------  ---------------
   393      0.240030  23 C  s               245     -0.175378  15 O  pz        
   139      0.160691   9 C  s               220      0.155519  14 C  pz        
   427     -0.153640  25 C  s         

 Vector   56  Occ=2.000000D+00  E=-5.993823D-01
              MO Center=  8.3D-01,  1.1D+00, -1.6D-02, r^2= 7.9D+00
   Bfn.  Coefficient  Atom+Function         Bfn.  Coefficient  Atom+Function  
  ----- ------------  ---------------      ----- ------------  ---------------
    83     -0.195787   6 O  py               82      0.184640   6 O  px        
   245     -0.168743  15 O  pz               59     -0.167899   5 C  pz        
   128     -0.166862   8 H  s               338     -0.164721  20 O  pz        
    58      0.162191   5 C  py              177     -0.152092  11 C  pz        

 Vector   57  Occ=2.000000D+00  E=-5.957645D-01
              MO Center=  1.1D+00,  1.5D+00, -6.1D-01, r^2= 9.5D+00
   Bfn.  Coefficient  Atom+Function         Bfn.  Coefficient  Atom+Function  
  ----- ------------  ---------------      ----- ------------  ---------------
    36      0.245375   3 H  s                35      0.220448   3 H  s         
    14      0.205479   2 C  px              245      0.189163  15 O  pz        
   177      0.179382  11 C  pz              196      0.173541  12 H  s         
    15     -0.166526   2 C  py              197      0.156811  12 H  s         

 Vector   58  Occ=2.000000D+00  E=-5.859565D-01
              MO Center=  1.7D-01,  6.2D-01, -1.3D-01, r^2= 1.1D+01
   Bfn.  Coefficient  Atom+Function         Bfn.  Coefficient  Atom+Function  
  ----- ------------  ---------------      ----- ------------  ---------------
   139      0.212004   9 C  s               217     -0.181901  14 C  s         
    35      0.173709   3 H  s                36      0.163623   3 H  s         
    15     -0.158539   2 C  py        

 Vector   59  Occ=2.000000D+00  E=-5.785299D-01
              MO Center=  1.1D-01, -7.7D-01,  8.5D-02, r^2= 1.1D+01
   Bfn.  Coefficient  Atom+Function         Bfn.  Coefficient  Atom+Function  
  ----- ------------  ---------------      ----- ------------  ---------------
   173      0.175232  11 C  s               591     -0.170504  34 O  py        
   566      0.166882  33 C  py        

 Vector   60  Occ=2.000000D+00  E=-5.727150D-01
              MO Center= -1.5D-01, -1.9D+00, -1.6D-01, r^2= 7.2D+00
   Bfn.  Coefficient  Atom+Function         Bfn.  Coefficient  Atom+Function  
  ----- ------------  ---------------      ----- ------------  ---------------
   567      0.212310  33 C  pz              592      0.211017  34 O  pz        
   450      0.207992  26 H  s               617      0.184689  35 N  pz        
   427      0.183495  25 C  s               499     -0.177180  29 O  pz        
   471      0.172587  28 C  s               431     -0.170200  25 C  pz        
   451      0.170520  26 H  s               595      0.154299  34 O  pz        

 Vector   61  Occ=2.000000D+00  E=-5.651436D-01
              MO Center=  6.3D-01,  1.1D+00, -1.5D-02, r^2= 1.1D+01
   Bfn.  Coefficient  Atom+Function         Bfn.  Coefficient  Atom+Function  
  ----- ------------  ---------------      ----- ------------  ---------------
   197      0.271441  12 H  s               217      0.235504  14 C  s         
    35     -0.202450   3 H  s               196      0.201062  12 H  s         
   174     -0.184915  11 C  s               417     -0.185744  24 H  s         
   177      0.182305  11 C  pz               36     -0.179727   3 H  s         
   139      0.179547   9 C  s                56      0.178022   5 C  s         

 Vector   62  Occ=2.000000D+00  E=-5.621078D-01
              MO Center=  4.6D-01,  7.1D-01,  5.4D-02, r^2= 1.0D+01
   Bfn.  Coefficient  Atom+Function         Bfn.  Coefficient  Atom+Function  
  ----- ------------  ---------------      ----- ------------  ---------------
   217      0.215020  14 C  s               139      0.179959   9 C  s         
   173     -0.177540  11 C  s                14     -0.165415   2 C  px        
    44      0.156438   4 H  s               244      0.154918  15 O  py        
   336     -0.152519  20 O  px        

 Vector   63  Occ=2.000000D+00  E=-5.460200D-01
              MO Center= -1.1D-01,  1.4D+00, -1.9D-03, r^2= 8.6D+00
   Bfn.  Coefficient  Atom+Function         Bfn.  Coefficient  Atom+Function  
  ----- ------------  ---------------      ----- ------------  ---------------
   244     -0.201351  15 O  py              173      0.192891  11 C  s         
   176      0.165819  11 C  py              247     -0.156951  15 O  py        

 Vector   64  Occ=2.000000D+00  E=-5.413935D-01
              MO Center= -7.4D-01, -7.9D-01, -3.6D-01, r^2= 8.1D+00
   Bfn.  Coefficient  Atom+Function         Bfn.  Coefficient  Atom+Function  
  ----- ------------  ---------------      ----- ------------  ---------------
   459      0.242564  27 H  s               173      0.230971  11 C  s         
   460      0.220929  27 H  s               471     -0.208049  28 C  s         
   430     -0.205209  25 C  py              139     -0.151539   9 C  s         

 Vector   65  Occ=2.000000D+00  E=-5.325812D-01
              MO Center=  5.6D-01,  3.3D-01,  3.0D-01, r^2= 8.5D+00
   Bfn.  Coefficient  Atom+Function         Bfn.  Coefficient  Atom+Function  
  ----- ------------  ---------------      ----- ------------  ---------------
   141      0.205504   9 C  px              178     -0.205145  11 C  px        
   427      0.192184  25 C  s               417      0.175538  24 H  s         
   176      0.154557  11 C  py        

 Vector   66  Occ=2.000000D+00  E=-5.138643D-01
              MO Center=  2.2D-01, -1.7D+00,  1.8D-01, r^2= 5.9D+00
   Bfn.  Coefficient  Atom+Function         Bfn.  Coefficient  Atom+Function  
  ----- ------------  ---------------      ----- ------------  ---------------
   393      0.332007  23 C  s               397      0.293242  23 C  pz        
   416      0.254385  24 H  s               432     -0.250944  25 C  px        
   431     -0.219933  25 C  pz              451      0.196951  26 H  s         
   617     -0.187599  35 N  pz              434     -0.184456  25 C  pz        
   592     -0.185016  34 O  pz              450      0.160567  26 H  s         

 Vector   67  Occ=2.000000D+00  E=-4.593269D-01
              MO Center=  9.9D-01,  5.9D-01,  7.5D-01, r^2= 5.8D+00
   Bfn.  Coefficient  Atom+Function         Bfn.  Coefficient  Atom+Function  
  ----- ------------  ---------------      ----- ------------  ---------------
   337     -0.342268  20 O  py              139      0.328062   9 C  s         
   340     -0.276676  20 O  py              318      0.220470  19 C  py        
   108     -0.179246   7 N  py               83      0.178118   6 O  py        
   107     -0.164820   7 N  px              111     -0.158449   7 N  py        
   110     -0.156376   7 N  px        

 Vector   68  Occ=2.000000D+00  E=-4.518986D-01
              MO Center=  1.6D+00, -1.1D-01,  6.1D-02, r^2= 7.8D+00
   Bfn.  Coefficient  Atom+Function         Bfn.  Coefficient  Atom+Function  
  ----- ------------  ---------------      ----- ------------  ---------------
    84      0.340784   6 O  pz               87      0.267057   6 O  pz        
   336     -0.238154  20 O  px              590      0.226137  34 O  px        
    82     -0.210781   6 O  px              417     -0.196784  24 H  s         
   339     -0.191131  20 O  px              593      0.177847  34 O  px        
    85     -0.172758   6 O  px              393      0.165372  23 C  s         

 Vector   69  Occ=2.000000D+00  E=-4.456974D-01
              MO Center= -6.4D-01, -2.4D-01, -3.6D-01, r^2= 1.0D+01
   Bfn.  Coefficient  Atom+Function         Bfn.  Coefficient  Atom+Function  
  ----- ------------  ---------------      ----- ------------  ---------------
   393      0.430349  23 C  s               417     -0.278717  24 H  s         
   498     -0.266421  29 O  py              243      0.214988  15 O  px        
   427     -0.215054  25 C  s               501     -0.211959  29 O  py        
    84     -0.205888   6 O  pz              368     -0.201322  21 N  py        
   499      0.199316  29 O  pz              590      0.195689  34 O  px        

 Vector   70  Occ=2.000000D+00  E=-4.431805D-01
              MO Center=  1.0D-01,  3.6D-01,  4.8D-01, r^2= 9.1D+00
   Bfn.  Coefficient  Atom+Function         Bfn.  Coefficient  Atom+Function  
  ----- ------------  ---------------      ----- ------------  ---------------
   243      0.288722  15 O  px              246      0.229975  15 O  px        
   417      0.219637  24 H  s               590     -0.212718  34 O  px        
   336      0.207925  20 O  px               84      0.200301   6 O  pz        
   337      0.189934  20 O  py              593     -0.166185  34 O  px        
   339      0.162806  20 O  px               87      0.157056   6 O  pz        

 Vector   71  Occ=2.000000D+00  E=-4.390191D-01
              MO Center= -2.0D+00, -2.5D-01, -4.5D-01, r^2= 6.1D+00
   Bfn.  Coefficient  Atom+Function         Bfn.  Coefficient  Atom+Function  
  ----- ------------  ---------------      ----- ------------  ---------------
   497      0.271840  29 O  px              499      0.251601  29 O  pz        
   243     -0.219199  15 O  px              500      0.217583  29 O  px        
   471      0.212227  28 C  s               563     -0.211195  33 C  s         
   502      0.209282  29 O  pz              523     -0.206017  30 N  py        
   360      0.186228  21 N  s               393      0.186748  23 C  s         

 Vector   72  Occ=2.000000D+00  E=-4.362311D-01
              MO Center= -1.9D+00,  2.8D-01, -4.8D-01, r^2= 6.0D+00
   Bfn.  Coefficient  Atom+Function         Bfn.  Coefficient  Atom+Function  
  ----- ------------  ---------------      ----- ------------  ---------------
   498      0.347475  29 O  py              501      0.278380  29 O  py        
   244      0.235321  15 O  py              247      0.192563  15 O  py        
   243      0.170969  15 O  px              521      0.171213  30 N  s         
   524     -0.164854  30 N  pz              268      0.162677  16 N  px        
   522     -0.160967  30 N  px              564     -0.155680  33 C  s         

 Vector   73  Occ=2.000000D+00  E=-4.151956D-01
              MO Center= -1.2D+00,  9.6D-01,  1.6D-01, r^2= 7.3D+00
   Bfn.  Coefficient  Atom+Function         Bfn.  Coefficient  Atom+Function  
  ----- ------------  ---------------      ----- ------------  ---------------
   244      0.288936  15 O  py              247      0.233562  15 O  py        
   106      0.211729   7 N  s               269     -0.201079  16 N  py        
   268      0.195629  16 N  px              337     -0.177986  20 O  py        
   271      0.172659  16 N  px              272     -0.165829  16 N  py        

 Vector   74  Occ=2.000000D+00  E=-4.101797D-01
              MO Center= -1.2D-01,  1.1D+00,  3.4D-01, r^2= 7.4D+00
   Bfn.  Coefficient  Atom+Function         Bfn.  Coefficient  Atom+Function  
  ----- ------------  ---------------      ----- ------------  ---------------
   163      0.260429  10 H  s               106     -0.220419   7 N  s         
   337      0.214460  20 O  py              139     -0.210987   9 C  s         
   145      0.207853   9 C  py              269     -0.208784  16 N  py        
   108     -0.204762   7 N  py              243     -0.204863  15 O  px        
   111     -0.193056   7 N  py              107     -0.188541   7 N  px        

 Vector   75  Occ=2.000000D+00  E=-4.017845D-01
              MO Center=  1.3D+00, -3.0D+00,  3.7D-01, r^2= 3.0D+00
   Bfn.  Coefficient  Atom+Function         Bfn.  Coefficient  Atom+Function  
  ----- ------------  ---------------      ----- ------------  ---------------
   617      0.408097  35 N  pz              592     -0.362272  34 O  pz        
   620      0.349837  35 N  pz              595     -0.283446  34 O  pz        
   590      0.180073  34 O  px        

 Vector   76  Occ=2.000000D+00  E=-3.951292D-01
              MO Center=  5.8D-01, -2.1D+00,  6.1D-01, r^2= 4.7D+00
   Bfn.  Coefficient  Atom+Function         Bfn.  Coefficient  Atom+Function  
  ----- ------------  ---------------      ----- ------------  ---------------
   590     -0.314439  34 O  px              361      0.302595  21 N  px        
   364      0.293620  21 N  px              593     -0.254410  34 O  px        
   427      0.237479  25 C  s               336     -0.220433  20 O  px        
   470     -0.218400  28 C  s               568      0.181808  33 C  px        
   339     -0.178236  20 O  px              592     -0.171710  34 O  pz        

 Vector   77  Occ=0.000000D+00  E= 1.848930D-02
              MO Center=  9.0D-01,  1.6D+00, -3.5D+00, r^2= 2.3D+01
   Bfn.  Coefficient  Atom+Function         Bfn.  Coefficient  Atom+Function  
  ----- ------------  ---------------      ----- ------------  ---------------
   384      5.987209  22 H  s               318      2.515738  19 C  py        
    46     -2.302689   4 H  s                65     -2.273698   5 C  pz        
    63      2.165712   5 C  px              217      1.830260  14 C  s         
   360      1.834011  21 N  s               207     -1.676763  13 H  s         
   452     -1.675220  26 H  s               521     -1.543395  30 N  s         

 Vector   78  Occ=0.000000D+00  E= 2.854291D-02
              MO Center=  8.0D-01,  3.2D+00, -4.9D-01, r^2= 2.9D+01
   Bfn.  Coefficient  Atom+Function         Bfn.  Coefficient  Atom+Function  
  ----- ------------  ---------------      ----- ------------  ---------------
   318      3.337182  19 C  py               56      3.086321   5 C  s         
   207     -2.994959  13 H  s               319      2.571600  19 C  pz        
   106     -2.442035   7 N  s               360      2.342086  21 N  s         
   182      2.027791  11 C  py                3     -1.862440   1 H  s         
   148      1.858067   9 C  py              384     -1.694541  22 H  s         

 Vector   79  Occ=0.000000D+00  E= 3.733542D-02
              MO Center=  2.4D-01,  2.2D+00, -1.2D+00, r^2= 4.0D+01
   Bfn.  Coefficient  Atom+Function         Bfn.  Coefficient  Atom+Function  
  ----- ------------  ---------------      ----- ------------  ---------------
    65      3.580409   5 C  pz              217      3.307701  14 C  s         
    56      2.594592   5 C  s               149      2.587148   9 C  pz        
   471      2.436043  28 C  s               521     -2.419605  30 N  s         
   140     -2.293601   9 C  s                63     -2.277411   5 C  px        
    12     -2.250848   2 C  s               198     -2.262098  12 H  s         

 Vector   80  Occ=0.000000D+00  E= 4.242710D-02
              MO Center=  1.9D+00,  4.0D-01, -1.1D+00, r^2= 3.7D+01
   Bfn.  Coefficient  Atom+Function         Bfn.  Coefficient  Atom+Function  
  ----- ------------  ---------------      ----- ------------  ---------------
   360      3.565711  21 N  s                37     -2.941548   3 H  s         
   452     -2.925052  26 H  s               217      2.290073  14 C  s         
   164     -2.247332  10 H  s               402     -2.202792  23 C  py        
   571      2.004017  33 C  px              394      1.960845  23 C  s         
   198     -1.926745  12 H  s               521      1.841693  30 N  s         

 Vector   81  Occ=0.000000D+00  E= 5.002670D-02
              MO Center= -4.9D-01,  1.5D+00,  3.7D-01, r^2= 3.9D+01
   Bfn.  Coefficient  Atom+Function         Bfn.  Coefficient  Atom+Function  
  ----- ------------  ---------------      ----- ------------  ---------------
   217      8.080073  14 C  s               267     -4.747033  16 N  s         
    56     -3.780794   5 C  s               149     -3.617665   9 C  pz        
    65     -3.102222   5 C  pz              164      2.670332  10 H  s         
   198     -2.431071  12 H  s                63      2.392629   5 C  px        
    46     -2.144430   4 H  s               148     -2.092362   9 C  py        

 Vector   82  Occ=0.000000D+00  E= 5.300828D-02
              MO Center= -1.2D+00,  2.3D-01, -8.0D-01, r^2= 4.1D+01
   Bfn.  Coefficient  Atom+Function         Bfn.  Coefficient  Atom+Function  
  ----- ------------  ---------------      ----- ------------  ---------------
   217      3.663406  14 C  s               267     -3.657027  16 N  s         
    46      3.019716   4 H  s               318     -2.726857  19 C  py        
   198      2.523052  12 H  s               461     -2.421205  27 H  s         
     3     -2.127029   1 H  s               225     -2.131786  14 C  py        
   435     -2.028492  25 C  px              554     -1.935229  32 H  s         

 Vector   83  Occ=0.000000D+00  E= 5.621126D-02
              MO Center=  4.6D-01,  1.1D+00,  2.9D-02, r^2= 4.0D+01
   Bfn.  Coefficient  Atom+Function         Bfn.  Coefficient  Atom+Function  
  ----- ------------  ---------------      ----- ------------  ---------------
   164      5.411710  10 H  s                56     -3.968894   5 C  s         
   452     -3.784501  26 H  s               207     -3.657680  13 H  s         
   174      3.461749  11 C  s               149     -3.299381   9 C  pz        
   384      3.196210  22 H  s               480      2.435371  28 C  pz        
   521      2.424634  30 N  s               147     -2.130732   9 C  px        

 Vector   84  Occ=0.000000D+00  E= 5.687644D-02
              MO Center=  1.3D+00, -6.1D-01, -3.3D-01, r^2= 4.3D+01
   Bfn.  Coefficient  Atom+Function         Bfn.  Coefficient  Atom+Function  
  ----- ------------  ---------------      ----- ------------  ---------------
   384      3.496239  22 H  s               614      3.379033  35 N  s         
   571     -3.198787  33 C  px              638      2.801361  36 H  s         
   207      2.575282  13 H  s               461     -2.588132  27 H  s         
     3     -2.460905   1 H  s               394     -2.130281  23 C  s         
   428     -2.073839  25 C  s               149      1.916522   9 C  pz        

 Vector   85  Occ=0.000000D+00  E= 6.181268D-02
              MO Center=  1.4D+00,  4.5D-01, -1.3D+00, r^2= 4.2D+01
   Bfn.  Coefficient  Atom+Function         Bfn.  Coefficient  Atom+Function  
  ----- ------------  ---------------      ----- ------------  ---------------
    37      5.006876   3 H  s               384      4.530905  22 H  s         
   471     -4.365373  28 C  s                46     -3.535910   4 H  s         
   207      3.093204  13 H  s               521      2.958254  30 N  s         
    13      2.672336   2 C  s               428     -2.672090  25 C  s         
   318     -2.532881  19 C  py              130     -2.354942   8 H  s         

 Vector   86  Occ=0.000000D+00  E= 6.980394D-02
              MO Center= -9.0D-01, -7.0D-01, -9.6D-01, r^2= 4.1D+01
   Bfn.  Coefficient  Atom+Function         Bfn.  Coefficient  Atom+Function  
  ----- ------------  ---------------      ----- ------------  ---------------
   384     -7.478300  22 H  s               217      7.083904  14 C  s         
   461      5.245544  27 H  s                56      4.981083   5 C  s         
    46      4.429165   4 H  s               564      3.595196  33 C  s         
   267     -3.288974  16 N  s                63     -3.237722   5 C  px        
   452     -2.869876  26 H  s               436      2.769508  25 C  py        

 Vector   87  Occ=0.000000D+00  E= 7.275129D-02
              MO Center= -1.1D-01,  1.3D+00,  1.7D-01, r^2= 4.2D+01
   Bfn.  Coefficient  Atom+Function         Bfn.  Coefficient  Atom+Function  
  ----- ------------  ---------------      ----- ------------  ---------------
   217      6.618471  14 C  s               198      5.867952  12 H  s         
   164     -4.361304  10 H  s                 3      3.411111   1 H  s         
   183     -3.315237  11 C  pz              267     -3.165844  16 N  s         
    46     -2.799468   4 H  s               318     -2.698531  19 C  py        
   291     -2.658277  17 H  s               149      2.593873   9 C  pz        

 Vector   88  Occ=0.000000D+00  E= 7.887331D-02
              MO Center= -1.1D+00, -4.3D-01, -3.2D-01, r^2= 3.9D+01
   Bfn.  Coefficient  Atom+Function         Bfn.  Coefficient  Atom+Function  
  ----- ------------  ---------------      ----- ------------  ---------------
   452     -6.049792  26 H  s               217      5.606816  14 C  s         
   418      4.541845  24 H  s               545      4.425458  31 H  s         
   207      3.939760  13 H  s               198     -3.886380  12 H  s         
   384      3.354481  22 H  s               174     -3.234341  11 C  s         
   403     -3.245888  23 C  pz              267     -3.043579  16 N  s         

 Vector   89  Occ=0.000000D+00  E= 8.548809D-02
              MO Center= -1.3D-01,  1.6D+00, -1.1D+00, r^2= 3.6D+01
   Bfn.  Coefficient  Atom+Function         Bfn.  Coefficient  Atom+Function  
  ----- ------------  ---------------      ----- ------------  ---------------
   130      6.797540   8 H  s               384      4.630049  22 H  s         
   207     -4.146890  13 H  s               291     -4.063089  17 H  s         
    56     -3.781929   5 C  s               564     -3.532383  33 C  s         
    46     -3.166089   4 H  s               198      2.786541  12 H  s         
[...]
   571      7.798304  33 C  px              267      6.790170  16 N  s         
   217      6.608890  14 C  s               140     -6.189386   9 C  s         
   225      6.124543  14 C  py              318      6.100952  19 C  py        

 Vector  184  Occ=0.000000D+00  E= 4.355479D-01
              MO Center= -4.6D-02, -2.5D-01, -8.8D-02, r^2= 2.1D+01
   Bfn.  Coefficient  Atom+Function         Bfn.  Coefficient  Atom+Function  
  ----- ------------  ---------------      ----- ------------  ---------------
   564     17.232065  33 C  s               360    -13.580267  21 N  s         
    56     10.577124   5 C  s               384     -9.460843  22 H  s         
   173     -7.608040  11 C  s               471     -6.514218  28 C  s         
   368      6.076304  21 N  py              614     -6.004125  35 N  s         
   148     -5.928802   9 C  py              319     -5.865458  19 C  pz        

 Vector  185  Occ=0.000000D+00  E= 4.375501D-01
              MO Center=  2.3D-01,  3.5D-01, -2.7D-01, r^2= 2.2D+01
   Bfn.  Coefficient  Atom+Function         Bfn.  Coefficient  Atom+Function  
  ----- ------------  ---------------      ----- ------------  ---------------
   217     24.204046  14 C  s               267    -23.309253  16 N  s         
   471    -21.044210  28 C  s               318    -16.182387  19 C  py        
   317    -12.428201  19 C  px               13      9.894081   2 C  s         
   435     -8.943835  25 C  px              148     -8.513552   9 C  py        
    65      8.163875   5 C  pz              402     -7.878209  23 C  py        

 Vector  186  Occ=0.000000D+00  E= 4.401556D-01
              MO Center=  3.2D-01,  3.1D-01, -4.3D-02, r^2= 2.0D+01
   Bfn.  Coefficient  Atom+Function         Bfn.  Coefficient  Atom+Function  
  ----- ------------  ---------------      ----- ------------  ---------------
   471     12.582247  28 C  s               174     -8.583794  11 C  s         
   401      7.470657  23 C  px              428      6.928606  25 C  s         
   564     -6.310970  33 C  s               402     -4.860920  23 C  py        
   384     -4.457535  22 H  s               310     -4.340071  19 C  s         
   147      4.308353   9 C  px               12      4.065871   2 C  s         

 Vector  187  Occ=0.000000D+00  E= 4.451317D-01
              MO Center=  2.1D-01,  8.1D-03, -4.6D-01, r^2= 2.0D+01
   Bfn.  Coefficient  Atom+Function         Bfn.  Coefficient  Atom+Function  
  ----- ------------  ---------------      ----- ------------  ---------------
   384     13.418831  22 H  s               267    -11.459505  16 N  s         
   368     -9.531302  21 N  py               56     -9.173827   5 C  s         
   360      8.923146  21 N  s               149     -7.971746   9 C  pz        
   521      7.559553  30 N  s               318      7.069405  19 C  py        
   317      6.472525  19 C  px              564     -6.454495  33 C  s         

 Vector  188  Occ=0.000000D+00  E= 4.507298D-01
              MO Center=  4.9D-02,  2.5D-01,  3.0D-01, r^2= 2.0D+01
   Bfn.  Coefficient  Atom+Function         Bfn.  Coefficient  Atom+Function  
  ----- ------------  ---------------      ----- ------------  ---------------
   217     15.982990  14 C  s               148    -13.860845   9 C  py        
   310    -11.560560  19 C  s               317    -11.114067  19 C  px        
   614     -8.546998  35 N  s               267     -8.166885  16 N  s         
   521     -8.204166  30 N  s               181      8.086577  11 C  px        
    13      7.689094   2 C  s               360     -7.681347  21 N  s         

 Vector  189  Occ=0.000000D+00  E= 4.523716D-01
              MO Center=  1.0D+00,  7.9D-01, -6.5D-01, r^2= 2.0D+01
   Bfn.  Coefficient  Atom+Function         Bfn.  Coefficient  Atom+Function  
  ----- ------------  ---------------      ----- ------------  ---------------
   318     16.894478  19 C  py              217    -14.797164  14 C  s         
    13    -11.317197   2 C  s               384      8.387674  22 H  s         
    56     -7.714240   5 C  s               394      7.717597  23 C  s         
   471     -7.492440  28 C  s               564      7.419737  33 C  s         
   267      7.376517  16 N  s               149     -7.173714   9 C  pz        

 Vector  190  Occ=0.000000D+00  E= 4.531215D-01
              MO Center=  3.1D-01, -6.9D-01, -6.1D-01, r^2= 2.1D+01
   Bfn.  Coefficient  Atom+Function         Bfn.  Coefficient  Atom+Function  
  ----- ------------  ---------------      ----- ------------  ---------------
   564     20.209666  33 C  s               521    -10.438288  30 N  s         
   318     10.338211  19 C  py              360     -9.057118  21 N  s         
   106     -8.898296   7 N  s                13     -7.977942   2 C  s         
   368      7.790071  21 N  py              394      6.615629  23 C  s         
   614     -6.429844  35 N  s               217      6.235354  14 C  s         

 Vector  191  Occ=0.000000D+00  E= 4.610935D-01
              MO Center=  1.9D-01,  1.4D-01,  2.0D-01, r^2= 1.9D+01
   Bfn.  Coefficient  Atom+Function         Bfn.  Coefficient  Atom+Function  
  ----- ------------  ---------------      ----- ------------  ---------------
   564     15.016596  33 C  s               217    -13.332802  14 C  s         
   267      9.644593  16 N  s               614     -9.004301  35 N  s         
   471      8.468255  28 C  s               368      7.239464  21 N  py        
   317      6.952805  19 C  px              360     -6.797454  21 N  s         
   384     -5.821522  22 H  s                13     -5.441491   2 C  s         

 Vector  192  Occ=0.000000D+00  E= 4.682635D-01
              MO Center= -7.3D-01,  5.8D-01, -7.9D-01, r^2= 2.0D+01
   Bfn.  Coefficient  Atom+Function         Bfn.  Coefficient  Atom+Function  
  ----- ------------  ---------------      ----- ------------  ---------------
   217     24.245346  14 C  s               521    -18.782961  30 N  s         
   471     15.985782  28 C  s               318     11.653492  19 C  py        
   149    -10.603214   9 C  pz              140    -10.052469   9 C  s         
   428      9.924371  25 C  s                56     -9.400709   5 C  s         
   106     -8.450320   7 N  s                12     -8.084262   2 C  s         

 Vector  193  Occ=0.000000D+00  E= 4.719736D-01
              MO Center= -4.1D-01, -4.4D-01, -2.2D-01, r^2= 1.9D+01
   Bfn.  Coefficient  Atom+Function         Bfn.  Coefficient  Atom+Function  
  ----- ------------  ---------------      ----- ------------  ---------------
   471     20.358551  28 C  s               564    -11.543481  33 C  s         
   384    -11.176879  22 H  s                12      8.268836   2 C  s         
   521     -6.378807  30 N  s               403      6.120948  23 C  pz        
   428      5.944068  25 C  s               614      5.871465  35 N  s         
   402     -5.803571  23 C  py              435      5.433261  25 C  px        

 Vector  194  Occ=0.000000D+00  E= 4.744005D-01
              MO Center=  2.5D-01, -4.7D-01, -9.7D-02, r^2= 1.9D+01
   Bfn.  Coefficient  Atom+Function         Bfn.  Coefficient  Atom+Function  
  ----- ------------  ---------------      ----- ------------  ---------------
   564     18.287215  33 C  s                56     10.200950   5 C  s         
   217      9.430485  14 C  s               148      8.870435   9 C  py        
   471     -7.953563  28 C  s               435     -7.820110  25 C  px        
   360     -7.145261  21 N  s               267     -6.916008  16 N  s         
   368      6.842925  21 N  py              318     -6.716441  19 C  py        

 Vector  195  Occ=0.000000D+00  E= 4.806753D-01
              MO Center= -3.4D-01, -1.8D-01, -2.8D-02, r^2= 1.8D+01
   Bfn.  Coefficient  Atom+Function         Bfn.  Coefficient  Atom+Function  
  ----- ------------  ---------------      ----- ------------  ---------------
   384     12.364330  22 H  s               267    -10.788692  16 N  s         
   174      9.487889  11 C  s               217      8.961251  14 C  s         
    56     -8.157125   5 C  s               471     -8.059177  28 C  s         
   360     -7.298964  21 N  s               401      5.245025  23 C  px        
   460      5.173221  27 H  s               197     -5.140386  12 H  s         

 Vector  196  Occ=0.000000D+00  E= 4.822822D-01
              MO Center= -6.2D-01, -1.7D-01, -1.3D-01, r^2= 2.0D+01
   Bfn.  Coefficient  Atom+Function         Bfn.  Coefficient  Atom+Function  
  ----- ------------  ---------------      ----- ------------  ---------------
   267     12.578437  16 N  s               471     -8.616430  28 C  s         
   427     -8.137620  25 C  s               217     -7.816618  14 C  s         
   368      7.346063  21 N  py              417      7.031961  24 H  s         
   451      6.923575  26 H  s               564     -6.796696  33 C  s         
   402     -6.152876  23 C  py              496      5.717251  29 O  s         

 Vector  197  Occ=0.000000D+00  E= 4.877177D-01
              MO Center= -2.2D-01,  5.4D-01,  3.0D-01, r^2= 1.9D+01
   Bfn.  Coefficient  Atom+Function         Bfn.  Coefficient  Atom+Function  
  ----- ------------  ---------------      ----- ------------  ---------------
   471     20.085852  28 C  s               106    -14.417477   7 N  s         
   402     12.777698  23 C  py              318     12.484269  19 C  py        
   217     10.276072  14 C  s               140    -10.091691   9 C  s         
   428      9.444719  25 C  s               149     -9.222918   9 C  pz        
   521     -8.998390  30 N  s               317      6.906793  19 C  px        

 Vector  198  Occ=0.000000D+00  E= 4.921477D-01
              MO Center=  2.4D-01,  1.0D+00,  2.0D-01, r^2= 1.8D+01
   Bfn.  Coefficient  Atom+Function         Bfn.  Coefficient  Atom+Function  
  ----- ------------  ---------------      ----- ------------  ---------------
   174     21.614068  11 C  s               360    -19.485549  21 N  s         
   173     14.191125  11 C  s                56    -13.924851   5 C  s         
   148    -12.294945   9 C  py              197    -12.010283  12 H  s         
   206    -10.079314  13 H  s               319     -9.846794  19 C  pz        
   140      7.638263   9 C  s               471     -7.376542  28 C  s         

 Vector  199  Occ=0.000000D+00  E= 4.963339D-01
              MO Center=  8.0D-01,  8.4D-01,  6.6D-02, r^2= 1.9D+01
   Bfn.  Coefficient  Atom+Function         Bfn.  Coefficient  Atom+Function  
  ----- ------------  ---------------      ----- ------------  ---------------
   564     26.307147  33 C  s               318     20.051787  19 C  py        
   149    -14.372790   9 C  pz              394     10.749116  23 C  s         
    13    -10.025291   2 C  s               402      9.855883  23 C  py        
   471     -8.222985  28 C  s                65     -8.021027   5 C  pz        
   173      7.444474  11 C  s               139      7.250622   9 C  s         

 Vector  200  Occ=0.000000D+00  E= 5.001112D-01
              MO Center=  5.2D-01, -2.1D-01, -6.5D-01, r^2= 1.8D+01
   Bfn.  Coefficient  Atom+Function         Bfn.  Coefficient  Atom+Function  
  ----- ------------  ---------------      ----- ------------  ---------------
   384     16.383926  22 H  s                56    -12.707645   5 C  s         
   115     -8.758349   7 N  pz              106     -8.081523   7 N  s         
    13     -7.507736   2 C  s               521     -7.214663  30 N  s         
   471     -6.601440  28 C  s               113      6.248367   7 N  px        
   174      6.097616  11 C  s               217      5.875871  14 C  s         


 center of mass
 --------------
 x =  -0.01691232 y =  -0.04373624 z =   0.04502161

 moments of inertia (a.u.)
 ------------------
        5451.447993786361           0.000000000000           0.000000000001
           0.000000000000        4904.203913440235           0.000000000002
           0.000000000001           0.000000000002        7332.745057770401

  Mulliken analysis of the total density
  --------------------------------------

    Atom       Charge   Shell Charges
 -----------   ------   -------------------------------------------------------
    1 H    1     0.79   0.76  0.06  0.00  0.03 -0.06
    2 C    6     6.32   2.01  0.66  0.33  0.10  2.07  1.00 -0.01  0.06  0.11
    3 H    1     0.96   0.76  0.23  0.00  0.03 -0.06
    4 H    1     0.87   0.76  0.13  0.01  0.03 -0.07
    5 C    6     5.15   2.01  0.68  0.10 -0.05  1.90  0.36 -0.04  0.24 -0.04
    6 O    8     8.81   2.01  0.82  1.00  0.19  2.80  1.85  0.16  0.01 -0.01
    7 N    7     7.54   2.01  0.72  0.81 -0.08  2.45  1.44  0.10  0.05  0.03
    8 H    1     0.90   0.75  0.15 -0.01  0.05 -0.04
    9 C    6     6.30   2.01  0.66  0.18 -0.01  1.99  1.21  0.00  0.14  0.13
   10 H    1     1.17   0.78  0.34  0.01  0.03  0.01
   11 C    6     6.47   2.01  0.66  0.60  0.05  2.05  0.88 -0.02  0.09  0.15
   12 H    1     0.86   0.78  0.14 -0.02  0.03 -0.06
   13 H    1     0.88   0.78  0.15  0.00  0.03 -0.09
   14 C    6     4.66   2.01  0.68  0.04  0.07  1.91 -0.18 -0.00  0.24 -0.10
   15 O    8     8.86   2.01  0.81  1.03  0.18  2.80  1.87  0.14  0.02 -0.00
   16 N    7     7.10   2.01  0.72  0.73 -0.17  2.47  1.25  0.08  0.04 -0.04
   17 H    1     0.89   0.72  0.15 -0.01  0.06 -0.03
   18 H    1     0.98   0.76  0.20 -0.00  0.05 -0.03
   19 C    6     4.61   2.01  0.68  0.08 -0.04  1.89  0.04  0.03  0.24 -0.31
   20 O    8     8.97   2.01  0.82  1.07  0.25  2.78  1.87  0.15  0.01  0.01
   21 N    7     7.33   2.01  0.72  0.75 -0.07  2.46  1.42 -0.01  0.06  0.00
   22 H    1     0.90   0.77  0.18  0.00  0.05 -0.10
   23 C    6     6.43   2.01  0.66  0.14 -0.00  1.99  1.20  0.16  0.14  0.14
   24 H    1     1.05   0.77  0.23 -0.01  0.03  0.03
   25 C    6     6.17   2.01  0.66  0.57 -0.14  2.05  0.76 -0.00  0.09  0.17
   26 H    1     1.02   0.79  0.29 -0.02  0.03 -0.06
   27 H    1     0.88   0.76  0.16  0.00  0.03 -0.07
   28 C    6     4.70   2.01  0.68  0.04  0.15  1.90 -0.18  0.04  0.24 -0.19
   29 O    8     8.88   2.01  0.82  1.04  0.17  2.81  1.87  0.15  0.02  0.00
   30 N    7     7.19   2.01  0.72  0.81 -0.14  2.47  1.23  0.06  0.04 -0.01
   31 H    1     0.98   0.76  0.21 -0.01  0.05 -0.04
   32 H    1     0.93   0.75  0.17 -0.02  0.05 -0.02
   33 C    6     4.47   2.01  0.68  0.13 -0.06  1.89 -0.22 -0.03  0.24 -0.15
   34 O    8     8.83   2.01  0.82  1.03  0.20  2.79  1.84  0.14  0.01 -0.01
   35 N    7     7.23   2.01  0.72  0.84 -0.16  2.46  1.23  0.10  0.04 -0.01
   36 H    1     1.00   0.75  0.22 -0.01  0.05 -0.03
   37 H    1     0.90   0.74  0.22 -0.01  0.06 -0.11

       Multipole analysis of the density wrt the origin
       ------------------------------------------------

     L   x y z        total         open         nuclear
     -   - - -        -----         ----         -------
     0   0 0 0      0.000000      0.000000    152.000000

     1   1 0 0      0.387984      0.000000     -0.000000
     1   0 1 0      2.455389      0.000000     -0.000000
     1   0 0 1     -1.803035      0.000000     -0.000000

     2   2 0 0    -93.615037      0.000000   1824.182617
     2   1 1 0      4.343837      0.000000     18.509976
     2   1 0 1     -2.849756      0.000000    -23.115650
     2   0 2 0    -97.796905      0.000000   2110.867292
     2   0 1 1      7.007661      0.000000      4.176669
     2   0 0 2    -81.368680      0.000000    857.634225


 Task  times  cpu:     5143.4s     wall:     5161.2s


                                NWChem Input Module
                                -------------------


 Summary of allocated global arrays
-----------------------------------
  No active global arrays


MA_summarize_allocated_blocks: starting scan ...
MA_summarize_allocated_blocks: scan completed: 0 heap blocks, 0 stack blocks
MA usage statistics:

	allocation statistics:
					      heap	     stack
					      ----	     -----
	current number of blocks	         0	         0
	maximum number of blocks	        16	        14
	current total bytes		         0	         0
	maximum total bytes		    138336	  29746664
	maximum total K-bytes		       139	     29747
	maximum total M-bytes		         1	        30


                                     CITATION
                                     --------
                Please cite the following reference when publishing
                           results obtained with NWChem:

          E. Apra, E. J. Bylaska, W. A. de Jong, N. Govind, K. Kowalski,
       T. P. Straatsma, M. Valiev, H. J. J. van Dam, Y. Alexeev, J. Anchell,
       V. Anisimov, F. W. Aquino, R. Atta-Fynn, J. Autschbach, N. P. Bauman,
     J. C. Becca, D. E. Bernholdt, K. Bhaskaran-Nair, S. Bogatko, P. Borowski,
         J. Boschen, J. Brabec, A. Bruner, E. Cauet, Y. Chen, G. N. Chuev,
      C. J. Cramer, J. Daily, M. J. O. Deegan, T. H. Dunning Jr., M. Dupuis,
   K. G. Dyall, G. I. Fann, S. A. Fischer, A. Fonari, H. Fruchtl, L. Gagliardi,
      J. Garza, N. Gawande, S. Ghosh, K. Glaesemann, A. W. Gotz, J. Hammond,
       V. Helms, E. D. Hermes, K. Hirao, S. Hirata, M. Jacquelin, L. Jensen,
   B. G. Johnson, H. Jonsson, R. A. Kendall, M. Klemm, R. Kobayashi, V. Konkov,
      S. Krishnamoorthy, M. Krishnan, Z. Lin, R. D. Lins, R. J. Littlefield,
      A. J. Logsdail, K. Lopata, W. Ma, A. V. Marenich, J. Martin del Campo,
   D. Mejia-Rodriguez, J. E. Moore, J. M. Mullin, T. Nakajima, D. R. Nascimento,
    J. A. Nichols, P. J. Nichols, J. Nieplocha, A. Otero-de-la-Roza, B. Palmer,
    A. Panyala, T. Pirojsirikul, B. Peng, R. Peverati, J. Pittner, L. Pollack,
   R. M. Richard, P. Sadayappan, G. C. Schatz, W. A. Shelton, D. W. Silverstein,
   D. M. A. Smith, T. A. Soares, D. Song, M. Swart, H. L. Taylor, G. S. Thomas,
            V. Tipparaju, D. G. Truhlar, K. Tsemekhman, T. Van Voorhis,
      A. Vazquez-Mayagoitia, P. Verma, O. Villa, A. Vishnu, K. D. Vogiatzis,
        D. Wang, J. H. Weare, M. J. Williamson, T. L. Windus, K. Wolinski,
        A. T. Wong, Q. Wu, C. Yang, Q. Yu, M. Zacharias, Z. Zhang, Y. Zhao,
                                and R. J. Harrison
                        "NWChem: Past, present, and future
                         J. Chem. Phys. 152, 184102 (2020)
                               doi:10.1063/5.0004997

                                      AUTHORS
                                      -------
  E. Apra, E. J. Bylaska, N. Govind, K. Kowalski, M. Valiev, D. Mejia-Rodriguez,
       A. Kunitsa, N. P. Bauman, A. Panyala, W. A. de Jong, T. P. Straatsma,
   H. J. J. van Dam, D. Wang, T. L. Windus, J. Hammond, J. Autschbach, A. Woods,
    K. Bhaskaran-Nair, J. Brabec, K. Lopata, S. A. Fischer, S. Krishnamoorthy,
     M. Jacquelin, W. Ma, M. Klemm, O. Villa, Y. Chen, V. Anisimov, F. Aquino,
     S. Hirata, M. T. Hackler, E. Hermes, L. Jensen, J. E. Moore, J. C. Becca,
      V. Konjkov, T. Risthaus, M. Malagoli, A. Marenich, A. Otero-de-la-Roza,
        J. Mullin, P. Nichols, R. Peverati, J. Pittner, Y. Zhao, P.-D. Fan,
        A. Fonari, M. J. Williamson, R. J. Harrison, J. R. Rehr, M. Dupuis,
     D. Silverstein, D. M. A. Smith, J. Nieplocha, V. Tipparaju, M. Krishnan,
     B. E. Van Kuiken, A. Vazquez-Mayagoitia, M. Swart, Q. Wu, T. Van Voorhis,
     A. A. Auer, M. Nooijen, L. D. Crosby, E. Brown, G. Cisneros, G. I. Fann,
   H. Fruchtl, J. Garza, K. Hirao, R. A. Kendall, J. A. Nichols, K. Tsemekhman,
    K. Wolinski, J. Anchell, D. E. Bernholdt, P. Borowski, T. Clark, D. Clerc,
   H. Dachsel, M. J. O. Deegan, K. Dyall, D. Elwood, E. Glendening, M. Gutowski,
   A. C. Hess, J. Jaffe, B. G. Johnson, J. Ju, R. Kobayashi, R. Kutteh, Z. Lin,
   R. Littlefield, X. Long, B. Meng, T. Nakajima, S. Niu, L. Pollack, M. Rosing,
   K. Glaesemann, G. Sandrone, M. Stave, H. Taylor, G. Thomas, J. H. van Lenthe,
                               A. T. Wong, Z. Zhang.

 Total times  cpu:     5143.4s     wall:     5161.7s
