export TMOUT=5400
export TMPDIR=/tmp
export PTMPDIR=/tmp/ptmp
 argument  1 = inputs/ASN_CYS_2.nw



============================== echo of input deck ==============================
start ASN_CYS_2
geometry
H          5.11400        2.28300        1.56800
C          4.44200        2.18100        0.71800
H          3.50800        1.72500        1.04100
H          4.90700        1.55800       -0.04500
C          4.15700        3.54400        0.13500
O          4.45800        3.79400       -1.02500
N          3.59000        4.43300        0.94800
H          3.38200        4.13400        1.89200
C          3.18000        5.79900        0.58400
H          2.66500        5.74700       -0.37700
C          2.15900        6.28500        1.63300
H          1.87200        7.31600        1.42500
H          1.26200        5.67100        1.56600
C          2.68700        6.18200        3.05300
O          2.51600        5.17900        3.72100
N          3.39200        7.17600        3.53000
H          3.67500        7.91300        2.89600
H          3.75400        7.07800        4.46000
C          4.35900        6.78500        0.37100
O          4.40000        7.86800        0.96100
N          5.34100        6.40800       -0.44900
H          5.23300        5.51800       -0.92400
C          6.47100        7.25700       -0.82100
H          6.92700        7.64700        0.09100
C          7.50600        6.38400       -1.54300
H          7.79800        5.55800       -0.89300
H          7.06900        5.97400       -2.45700
S          8.98100        7.35800       -1.96000
H          8.45900        8.00500       -3.01000
C          6.01900        8.45600       -1.67800
O          5.26900        8.30600       -2.63600
N          6.49600        9.65800       -1.38100
H          7.11800        9.77800       -0.59900
H          6.19600       10.43800       -1.94200
end

basis
 * library aug-cc-pvdz
end

echo

scf
 direct
end

task scf energy
================================================================================


                                         
                                         


             Northwest Computational Chemistry Package (NWChem) 7.2.0
             --------------------------------------------------------


                    Environmental Molecular Sciences Laboratory
                       Pacific Northwest National Laboratory
                                Richland, WA 99352

                              Copyright (c) 1994-2022
                       Pacific Northwest National Laboratory
                            Battelle Memorial Institute

             NWChem is an open-source computational chemistry package
                        distributed under the terms of the
                      Educational Community License (ECL) 2.0
             A copy of the license is included with this distribution
                              in the LICENSE.TXT file

                                  ACKNOWLEDGMENT
                                  --------------

            This software and its documentation were developed at the
            EMSL at Pacific Northwest National Laboratory, a multiprogram
            national laboratory, operated for the U.S. Department of Energy
            by Battelle under Contract Number DE-AC05-76RL01830. Support
            for this work was provided by the Department of Energy Office
            of Biological and Environmental Research, Office of Basic
            Energy Sciences, and the Office of Advanced Scientific Computing.


           Job information
           ---------------

    hostname        = nova21-swift-3
    program         = /opt/rit/el9/20230413/app/linux-rhel9-x86_64_v3/gcc-11.2.1/nwchem-7.2.0-oxtctbuhfuzyfaoziquq6bki22grib3g/bin/nwchem
    date            = Thu Jul 10 03:59:43 2025

    compiled        = Wed_May_17_23:46:39_2023
    source          = /tmp/root/spack-stage/spack-stage-nwchem-7.2.0-oxtctbuhfuzyfaoziquq6bki22grib3g/spack-src
    nwchem branch   = 7.2.0
    nwchem revision = d0d141fd
    ga revision     = 5.8.0
    use scalapack   = T
    input           = inputs/ASN_CYS_2.nw
    prefix          = ASN_CYS_2.
    data base       = ./ASN_CYS_2.db
    status          = startup
    nproc           =        8
    time left       =     -1s



           Memory information
           ------------------

    heap     =   26214400 doubles =    200.0 Mbytes
    stack    =   26214397 doubles =    200.0 Mbytes
    global   =   52428800 doubles =    400.0 Mbytes (distinct from heap & stack)
    total    =  104857597 doubles =    800.0 Mbytes
    verify   = yes
    hardfail = no 


           Directory information
           ---------------------

  0 permanent = .
  0 scratch   = .




                                NWChem Input Module
                                -------------------



 Scaling coordinates for geometry "geometry" by  1.889725989
 (inverse scale =  0.529177249)

 C1  symmetry detected

          ------
          auto-z
          ------
  no constraints, skipping    0.0000000000000000     
  no constraints, skipping    0.0000000000000000     


                             Geometry "geometry" -> ""
                             -------------------------

 Output coordinates in angstroms (scale by  1.889725989 to convert to a.u.)

  No.       Tag          Charge          X              Y              Z
 ---- ---------------- ---------- -------------- -------------- --------------
    1 H                    1.0000    -3.20089646     2.50145989     1.46567048
    2 C                    6.0000    -3.42722034     2.47817121     0.40137581
    3 H                    1.0000    -3.50721691     3.49467913     0.02067486
    4 H                    1.0000    -4.36704714     1.95251526     0.23725874
    5 C                    6.0000    -2.32359740     1.75538082    -0.33243168
    6 O                    8.0000    -2.56911906     0.73980757    -0.97042157
    7 N                    7.0000    -1.10076176     2.27151280    -0.22726619
    8 H                    1.0000    -0.99648782     3.11217319     0.32610354
    9 C                    6.0000     0.11100732     1.76598979    -0.89255875
   10 H                    1.0000    -0.14565420     1.54808723    -1.93087149
   11 C                    6.0000     1.15764051     2.89892328    -0.90021885
   12 H                    1.0000     2.08994675     2.54299384    -1.33921009
   13 H                    1.0000     0.79066371     3.71671331    -1.51879907
   14 C                    6.0000     1.42910517     3.45230125     0.48753933
   15 O                    8.0000     0.79017290     4.38792541     0.93233925
   16 N                    7.0000     2.32838134     2.85926729     1.23064303
   17 H                    1.0000     2.71094824     1.97776939     0.91155366
   18 H                    1.0000     2.47459232     3.22326038     2.15350779
   19 C                    6.0000     0.65178557     0.43358070    -0.30959143
   20 O                    8.0000     1.82894511     0.32239739     0.04340103
   21 N                    7.0000    -0.20749855    -0.57763778    -0.17572207
   22 H                    1.0000    -1.15378504    -0.42996549    -0.51057094
   23 C                    6.0000     0.16564763    -1.91792961     0.27201082
   24 H                    1.0000     0.72623195    -1.82871967     1.20451648
   25 C                    6.0000    -1.12262041    -2.70161998     0.55632205
   26 H                    1.0000    -1.71731374    -2.16286935     1.29532652
   27 H                    1.0000    -1.70657277    -2.79670423    -0.36260321
   28 S                   16.0000    -0.73367820    -4.35412868     1.20140263
   29 H                    1.0000    -0.38492826    -4.90844878     0.03320072
   30 C                    6.0000     1.06548273    -2.62801531    -0.75873119
   31 O                    8.0000     0.77683837    -2.64488533    -1.95001782
   32 N                    7.0000     2.14564194    -3.26218249    -0.32097546
   33 H                    1.0000     2.37671088    -3.25403165     0.65848802
   34 H                    1.0000     2.73123575    -3.72222550    -0.99814701

      Atomic Mass 
      ----------- 

      H                  1.007825
      C                 12.000000
      O                 15.994910
      N                 14.003070
      S                 31.972070


 Effective nuclear repulsion energy (a.u.)    1535.3362057977

            Nuclear Dipole moment (a.u.) 
            ----------------------------
        X                 Y               Z
 ---------------- ---------------- ----------------
     0.0000000000    -0.0000000000     0.0000000000



                                Z-matrix (autoz)
                                -------- 

 Units are Angstrom for bonds and degrees for angles

      Type          Name      I     J     K     L     M      Value
      ----------- --------  ----- ----- ----- ----- ----- ----------
    1 Stretch                  1     2                       1.08834
    2 Stretch                  2     3                       1.08840
    3 Stretch                  2     4                       1.08928
    4 Stretch                  2     5                       1.50960
    5 Stretch                  5     6                       1.22421
    6 Stretch                  5     7                       1.33146
    7 Stretch                  7     8                       1.01183
    8 Stretch                  7     9                       1.47192
    9 Stretch                  9    10                       1.09154
   10 Stretch                  9    11                       1.54241
   11 Stretch                  9    19                       1.55165
   12 Stretch                 11    12                       1.09023
   13 Stretch                 11    13                       1.08908
   14 Stretch                 11    14                       1.51848
   15 Stretch                 14    15                       1.21716
   16 Stretch                 14    16                       1.30866
   17 Stretch                 16    17                       1.01253
   18 Stretch                 16    18                       1.00277
   19 Stretch                 19    20                       1.23397
   20 Stretch                 19    21                       1.33374
   21 Stretch                 21    22                       1.01459
   22 Stretch                 21    23                       1.46154
   23 Stretch                 23    24                       1.09169
   24 Stretch                 23    25                       1.53448
   25 Stretch                 23    30                       1.54154
   26 Stretch                 25    26                       1.09089
   27 Stretch                 25    27                       1.09292
   28 Stretch                 25    28                       1.81609
   29 Stretch                 28    29                       1.33925
   30 Stretch                 30    31                       1.22587
   31 Stretch                 30    32                       1.32685
   32 Stretch                 32    33                       1.00638
   33 Stretch                 32    34                       1.00654
   34 Bend                     1     2     3               109.71553
   35 Bend                     1     2     4               109.69938
   36 Bend                     1     2     5               109.48570
   37 Bend                     2     5     6               120.25844
   38 Bend                     2     5     7               116.57907
   39 Bend                     3     2     4               109.54713
   40 Bend                     3     2     5               109.32200
   41 Bend                     4     2     5               109.05496
   42 Bend                     5     7     8               117.38139
   43 Bend                     5     7     9               125.96279
   44 Bend                     6     5     7               123.15694
   45 Bend                     7     9    10               107.75414
   46 Bend                     7     9    11               107.97573
   47 Bend                     7     9    19               114.33193
   48 Bend                     8     7     9               116.59599
   49 Bend                     9    11    12               110.02781
   50 Bend                     9    11    13               109.00928
   51 Bend                     9    11    14               112.60966
   52 Bend                     9    19    20               121.15287
   53 Bend                     9    19    21               117.66034
   54 Bend                    10     9    11               107.54561
   55 Bend                    10     9    19               105.54032
   56 Bend                    11     9    19               113.33517
   57 Bend                    11    14    15               121.35036
   58 Bend                    11    14    16               118.46714
   59 Bend                    12    11    13               107.73381
   60 Bend                    12    11    14               109.51743
   61 Bend                    13    11    14               107.79893
   62 Bend                    14    16    17               118.37280
   63 Bend                    14    16    18               117.27687
   64 Bend                    15    14    16               120.10298
   65 Bend                    17    16    18               123.43235
   66 Bend                    19    21    22               117.22058
   67 Bend                    19    21    23               124.16292
   68 Bend                    20    19    21               121.17022
   69 Bend                    21    23    24               108.53235
   70 Bend                    21    23    25               108.10545
   71 Bend                    21    23    30               111.50713
   72 Bend                    22    21    23               118.20987
   73 Bend                    23    25    26               109.32731
   74 Bend                    23    25    27               109.70776
   75 Bend                    23    25    28               110.53188
   76 Bend                    23    30    31               121.24333
   77 Bend                    23    30    32               118.34340
   78 Bend                    24    23    25               108.33537
   79 Bend                    24    23    30               108.00168
   80 Bend                    25    23    30               112.25290
   81 Bend                    25    28    29                97.03957
   82 Bend                    26    25    27               108.74024
   83 Bend                    26    25    28               108.99611
   84 Bend                    27    25    28               109.50690
   85 Bend                    30    32    33               120.27416
   86 Bend                    30    32    34               118.04128
   87 Bend                    31    30    32               120.37895
   88 Bend                    33    32    34               121.66131
   89 Torsion                  1     2     5     6         119.50182
   90 Torsion                  1     2     5     7         -59.66783
   91 Torsion                  2     5     7     8          -0.56917
   92 Torsion                  2     5     7     9        -177.64888
   93 Torsion                  3     2     5     6        -120.28160
   94 Torsion                  3     2     5     7          60.54875
   95 Torsion                  4     2     5     6          -0.53184
   96 Torsion                  4     2     5     7        -179.70149
   97 Torsion                  5     7     9    10          44.73914
   98 Torsion                  5     7     9    11         160.63063
   99 Torsion                  5     7     9    19         -72.23068
  100 Torsion                  6     5     7     8        -179.71245
  101 Torsion                  6     5     7     9           3.20784
  102 Torsion                  7     9    11    12         176.99609
  103 Torsion                  7     9    11    13         -65.06818
  104 Torsion                  7     9    11    14          54.51580
  105 Torsion                  7     9    19    20        -127.42233
  106 Torsion                  7     9    19    21          51.11350
  107 Torsion                  8     7     9    10        -132.36091
  108 Torsion                  8     7     9    11         -16.46941
  109 Torsion                  8     7     9    19         110.66927
  110 Torsion                  9    11    14    15         -90.47843
  111 Torsion                  9    11    14    16          86.28143
  112 Torsion                  9    19    21    22           3.21562
  113 Torsion                  9    19    21    23         175.74719
  114 Torsion                 10     9    11    12         -66.97614
  115 Torsion                 10     9    11    13          50.95959
  116 Torsion                 10     9    11    14         170.54357
  117 Torsion                 10     9    19    20         114.34170
  118 Torsion                 10     9    19    21         -67.12247
  119 Torsion                 11     9    19    20          -3.09332
  120 Torsion                 11     9    19    21         175.44251
  121 Torsion                 11    14    16    17          -8.86881
  122 Torsion                 11    14    16    18        -178.28703
  123 Torsion                 12    11     9    19          49.28203
  124 Torsion                 12    11    14    15         146.75464
  125 Torsion                 12    11    14    16         -36.48549
  126 Torsion                 13    11     9    19         167.21776
  127 Torsion                 13    11    14    15          29.80498
  128 Torsion                 13    11    14    16        -153.43516
  129 Torsion                 14    11     9    19         -73.19827
  130 Torsion                 15    14    16    17         167.93276
  131 Torsion                 15    14    16    18          -1.48546
  132 Torsion                 19    21    23    24          51.76535
  133 Torsion                 19    21    23    25         169.06668
  134 Torsion                 19    21    23    30         -67.07932
  135 Torsion                 20    19    21    22        -178.24882
  136 Torsion                 20    19    21    23          -5.71725
  137 Torsion                 21    23    25    26         -57.08347
  138 Torsion                 21    23    25    27          62.07865
  139 Torsion                 21    23    25    28        -177.06343
  140 Torsion                 21    23    30    31         -47.69914
  141 Torsion                 21    23    30    32         134.42422
  142 Torsion                 22    21    23    24        -135.77153
  143 Torsion                 22    21    23    25         -18.47021
  144 Torsion                 22    21    23    30         105.38380
  145 Torsion                 23    25    28    29         -76.82518
  146 Torsion                 23    30    32    33          -1.56847
  147 Torsion                 23    30    32    34        -179.84352
  148 Torsion                 24    23    25    26          60.34471
  149 Torsion                 24    23    25    27         179.50683
  150 Torsion                 24    23    25    28         -59.63525
  151 Torsion                 24    23    30    31        -166.85978
  152 Torsion                 24    23    30    32          15.26358
  153 Torsion                 25    23    30    31          73.77670
  154 Torsion                 25    23    30    32        -104.09994
  155 Torsion                 26    25    23    30         179.51281
  156 Torsion                 26    25    28    29         162.99615
  157 Torsion                 27    25    23    30         -61.32506
  158 Torsion                 27    25    28    29          44.15220
  159 Torsion                 28    25    23    30          59.53285
  160 Torsion                 31    30    32    33        -179.46414
  161 Torsion                 31    30    32    34           2.26081


            XYZ format geometry
            -------------------
    34
 geometry
 H                    -3.20089646     2.50145989     1.46567048
 C                    -3.42722034     2.47817121     0.40137581
 H                    -3.50721691     3.49467913     0.02067486
 H                    -4.36704714     1.95251526     0.23725874
 C                    -2.32359740     1.75538082    -0.33243168
 O                    -2.56911906     0.73980757    -0.97042157
 N                    -1.10076176     2.27151280    -0.22726619
 H                    -0.99648782     3.11217319     0.32610354
 C                     0.11100732     1.76598979    -0.89255875
 H                    -0.14565420     1.54808723    -1.93087149
 C                     1.15764051     2.89892328    -0.90021885
 H                     2.08994675     2.54299384    -1.33921009
 H                     0.79066371     3.71671331    -1.51879907
 C                     1.42910517     3.45230125     0.48753933
 O                     0.79017290     4.38792541     0.93233925
 N                     2.32838134     2.85926729     1.23064303
 H                     2.71094824     1.97776939     0.91155366
 H                     2.47459232     3.22326038     2.15350779
 C                     0.65178557     0.43358070    -0.30959143
 O                     1.82894511     0.32239739     0.04340103
 N                    -0.20749855    -0.57763778    -0.17572207
 H                    -1.15378504    -0.42996549    -0.51057094
 C                     0.16564763    -1.91792961     0.27201082
 H                     0.72623195    -1.82871967     1.20451648
 C                    -1.12262041    -2.70161998     0.55632205
 H                    -1.71731374    -2.16286935     1.29532652
 H                    -1.70657277    -2.79670423    -0.36260321
 S                    -0.73367820    -4.35412868     1.20140263
 H                    -0.38492826    -4.90844878     0.03320072
 C                     1.06548273    -2.62801531    -0.75873119
 O                     0.77683837    -2.64488533    -1.95001782
 N                     2.14564194    -3.26218249    -0.32097546
 H                     2.37671088    -3.25403165     0.65848802
 H                     2.73123575    -3.72222550    -0.99814701

 ==============================================================================
                                internuclear distances
 ------------------------------------------------------------------------------
       center one      |      center two      | atomic units |  angstroms
 ------------------------------------------------------------------------------
    2 C                |   1 H                |     2.05667  |     1.08834
    3 H                |   2 C                |     2.05678  |     1.08840
    4 H                |   2 C                |     2.05843  |     1.08928
    5 C                |   2 C                |     2.85272  |     1.50960
    6 O                |   5 C                |     2.31343  |     1.22421
    7 N                |   5 C                |     2.51609  |     1.33146
    8 H                |   7 N                |     1.91208  |     1.01183
    9 C                |   7 N                |     2.78153  |     1.47192
   10 H                |   9 C                |     2.06270  |     1.09154
   11 C                |   9 C                |     2.91474  |     1.54241
   12 H                |  11 C                |     2.06023  |     1.09023
   13 H                |  11 C                |     2.05806  |     1.08908
   14 C                |  11 C                |     2.86952  |     1.51848
   15 O                |  14 C                |     2.30010  |     1.21716
   16 N                |  14 C                |     2.47301  |     1.30866
   17 H                |  16 N                |     1.91340  |     1.01253
   18 H                |  16 N                |     1.89496  |     1.00277
   19 C                |   9 C                |     2.93219  |     1.55165
   20 O                |  19 C                |     2.33186  |     1.23397
   21 N                |  19 C                |     2.52040  |     1.33374
   22 H                |  21 N                |     1.91729  |     1.01459
   23 C                |  21 N                |     2.76190  |     1.46154
   24 H                |  23 C                |     2.06299  |     1.09169
   25 C                |  23 C                |     2.89975  |     1.53448
   26 H                |  25 C                |     2.06148  |     1.09089
   27 H                |  25 C                |     2.06531  |     1.09292
   28 S                |  25 C                |     3.43192  |     1.81609
   29 H                |  28 S                |     2.53082  |     1.33925
   30 C                |  23 C                |     2.91309  |     1.54154
   31 O                |  30 C                |     2.31656  |     1.22587
   32 N                |  30 C                |     2.50739  |     1.32685
   33 H                |  32 N                |     1.90179  |     1.00638
   34 H                |  32 N                |     1.90208  |     1.00654
 ------------------------------------------------------------------------------
                         number of included internuclear distances:         33
 ==============================================================================



 ==============================================================================
                                 internuclear angles
 ------------------------------------------------------------------------------
        center 1       |       center 2       |       center 3       |  degrees
 ------------------------------------------------------------------------------
    1 H                |   2 C                |   3 H                |   109.72
    1 H                |   2 C                |   4 H                |   109.70
    1 H                |   2 C                |   5 C                |   109.49
    3 H                |   2 C                |   4 H                |   109.55
    3 H                |   2 C                |   5 C                |   109.32
    4 H                |   2 C                |   5 C                |   109.05
    2 C                |   5 C                |   6 O                |   120.26
    2 C                |   5 C                |   7 N                |   116.58
    6 O                |   5 C                |   7 N                |   123.16
    5 C                |   7 N                |   8 H                |   117.38
    5 C                |   7 N                |   9 C                |   125.96
    8 H                |   7 N                |   9 C                |   116.60
    7 N                |   9 C                |  10 H                |   107.75
    7 N                |   9 C                |  11 C                |   107.98
    7 N                |   9 C                |  19 C                |   114.33
   10 H                |   9 C                |  11 C                |   107.55
   10 H                |   9 C                |  19 C                |   105.54
   11 C                |   9 C                |  19 C                |   113.34
    9 C                |  11 C                |  12 H                |   110.03
    9 C                |  11 C                |  13 H                |   109.01
    9 C                |  11 C                |  14 C                |   112.61
   12 H                |  11 C                |  13 H                |   107.73
   12 H                |  11 C                |  14 C                |   109.52
   13 H                |  11 C                |  14 C                |   107.80
   11 C                |  14 C                |  15 O                |   121.35
   11 C                |  14 C                |  16 N                |   118.47
   15 O                |  14 C                |  16 N                |   120.10
   14 C                |  16 N                |  17 H                |   118.37
   14 C                |  16 N                |  18 H                |   117.28
   17 H                |  16 N                |  18 H                |   123.43
    9 C                |  19 C                |  20 O                |   121.15
    9 C                |  19 C                |  21 N                |   117.66
   20 O                |  19 C                |  21 N                |   121.17
   19 C                |  21 N                |  22 H                |   117.22
   19 C                |  21 N                |  23 C                |   124.16
   22 H                |  21 N                |  23 C                |   118.21
   21 N                |  23 C                |  24 H                |   108.53
   21 N                |  23 C                |  25 C                |   108.11
   21 N                |  23 C                |  30 C                |   111.51
   24 H                |  23 C                |  25 C                |   108.34
   24 H                |  23 C                |  30 C                |   108.00
   25 C                |  23 C                |  30 C                |   112.25
   23 C                |  25 C                |  26 H                |   109.33
   23 C                |  25 C                |  27 H                |   109.71
   23 C                |  25 C                |  28 S                |   110.53
   26 H                |  25 C                |  27 H                |   108.74
   26 H                |  25 C                |  28 S                |   109.00
   27 H                |  25 C                |  28 S                |   109.51
   25 C                |  28 S                |  29 H                |    97.04
   23 C                |  30 C                |  31 O                |   121.24
   23 C                |  30 C                |  32 N                |   118.34
   31 O                |  30 C                |  32 N                |   120.38
   30 C                |  32 N                |  33 H                |   120.27
   30 C                |  32 N                |  34 H                |   118.04
   33 H                |  32 N                |  34 H                |   121.66
 ------------------------------------------------------------------------------
                            number of included internuclear angles:         55
 ==============================================================================



  library name resolved from: environment
  library file name is: </opt/rit/el9/20230413/app/linux-rhel9-x86_64_v3/gcc-11.2.1/nwchem-7.2.0-oxtctbuhfuzyfaoziquq6bki22grib3g/share/nwchem/libraries/>
  


 Summary of "ao basis" -> "" (cartesian)
 ------------------------------------------------------------------------------
       Tag                 Description            Shells   Functions and Types
 ---------------- ------------------------------  ------  ---------------------
 *                        aug-cc-pvdz                 on all atoms 


                      Basis "ao basis" -> "ao basis" (cartesian)
                      -----
  H (Hydrogen)
  ------------
            Exponent  Coefficients 
       -------------- ---------------------------------------------------------
  1 S  1.30100000E+01  0.019685
  1 S  1.96200000E+00  0.137977
  1 S  4.44600000E-01  0.478148

  2 S  1.22000000E-01  1.000000

  3 S  2.97400000E-02  1.000000

  4 P  7.27000000E-01  1.000000

  5 P  1.41000000E-01  1.000000

  C (Carbon)
  ----------
            Exponent  Coefficients 
       -------------- ---------------------------------------------------------
  1 S  6.66500000E+03  0.000692
  1 S  1.00000000E+03  0.005329
  1 S  2.28000000E+02  0.027077
  1 S  6.47100000E+01  0.101718
  1 S  2.10600000E+01  0.274740
  1 S  7.49500000E+00  0.448564
  1 S  2.79700000E+00  0.285074
  1 S  5.21500000E-01  0.015204

  2 S  6.66500000E+03 -0.000146
  2 S  1.00000000E+03 -0.001154
  2 S  2.28000000E+02 -0.005725
  2 S  6.47100000E+01 -0.023312
  2 S  2.10600000E+01 -0.063955
  2 S  7.49500000E+00 -0.149981
  2 S  2.79700000E+00 -0.127262
  2 S  5.21500000E-01  0.544529

  3 S  1.59600000E-01  1.000000

  4 S  4.69000000E-02  1.000000

  5 P  9.43900000E+00  0.038109
  5 P  2.00200000E+00  0.209480
  5 P  5.45600000E-01  0.508557

  6 P  1.51700000E-01  1.000000

  7 P  4.04100000E-02  1.000000

  8 D  5.50000000E-01  1.000000

  9 D  1.51000000E-01  1.000000

  O (Oxygen)
  ----------
            Exponent  Coefficients 
       -------------- ---------------------------------------------------------
  1 S  1.17200000E+04  0.000710
  1 S  1.75900000E+03  0.005470
  1 S  4.00800000E+02  0.027837
  1 S  1.13700000E+02  0.104800
  1 S  3.70300000E+01  0.283062
  1 S  1.32700000E+01  0.448719
  1 S  5.02500000E+00  0.270952
  1 S  1.01300000E+00  0.015458

  2 S  1.17200000E+04 -0.000160
  2 S  1.75900000E+03 -0.001263
  2 S  4.00800000E+02 -0.006267
  2 S  1.13700000E+02 -0.025716
  2 S  3.70300000E+01 -0.070924
  2 S  1.32700000E+01 -0.165411
  2 S  5.02500000E+00 -0.116955
  2 S  1.01300000E+00  0.557368

  3 S  3.02300000E-01  1.000000

  4 S  7.89600000E-02  1.000000

  5 P  1.77000000E+01  0.043018
  5 P  3.85400000E+00  0.228913
  5 P  1.04600000E+00  0.508728

  6 P  2.75300000E-01  1.000000

  7 P  6.85600000E-02  1.000000

  8 D  1.18500000E+00  1.000000

  9 D  3.32000000E-01  1.000000

  N (Nitrogen)
  ------------
            Exponent  Coefficients 
       -------------- ---------------------------------------------------------
  1 S  9.04600000E+03  0.000700
  1 S  1.35700000E+03  0.005389
  1 S  3.09300000E+02  0.027406
  1 S  8.77300000E+01  0.103207
  1 S  2.85600000E+01  0.278723
  1 S  1.02100000E+01  0.448540
  1 S  3.83800000E+00  0.278238
  1 S  7.46600000E-01  0.015440

  2 S  9.04600000E+03 -0.000153
  2 S  1.35700000E+03 -0.001208
  2 S  3.09300000E+02 -0.005992
  2 S  8.77300000E+01 -0.024544
  2 S  2.85600000E+01 -0.067459
  2 S  1.02100000E+01 -0.158078
  2 S  3.83800000E+00 -0.121831
  2 S  7.46600000E-01  0.549003

  3 S  2.24800000E-01  1.000000

  4 S  6.12400000E-02  1.000000

  5 P  1.35500000E+01  0.039919
  5 P  2.91700000E+00  0.217169
  5 P  7.97300000E-01  0.510319

  6 P  2.18500000E-01  1.000000

  7 P  5.61100000E-02  1.000000

  8 D  8.17000000E-01  1.000000

  9 D  2.30000000E-01  1.000000

  S (Sulphur)
  -----------
            Exponent  Coefficients 
       -------------- ---------------------------------------------------------
  1 S  1.10800000E+05  0.000248
  1 S  1.66100000E+04  0.001920
  1 S  3.78100000E+03  0.009962
  1 S  1.07100000E+03  0.040298
  1 S  3.49800000E+02  0.128604
  1 S  1.26300000E+02  0.303480
  1 S  4.92600000E+01  0.421432
  1 S  2.01600000E+01  0.230781
  1 S  5.72000000E+00  0.017897
  1 S  2.18200000E+00 -0.002975
  1 S  4.32700000E-01  0.000850

  2 S  1.10800000E+05 -0.000069
  2 S  1.66100000E+04 -0.000528
  2 S  3.78100000E+03 -0.002797
  2 S  1.07100000E+03 -0.011265
  2 S  3.49800000E+02 -0.038883
  2 S  1.26300000E+02 -0.099503
  2 S  4.92600000E+01 -0.199740
  2 S  2.01600000E+01 -0.123360
  2 S  5.72000000E+00  0.513194
  2 S  2.18200000E+00  0.607120
  2 S  4.32700000E-01  0.039675

  3 S  1.10800000E+05  0.000020
  3 S  1.66100000E+04  0.000153
  3 S  3.78100000E+03  0.000810
  3 S  1.07100000E+03  0.003290
  3 S  3.49800000E+02  0.011297
  3 S  1.26300000E+02  0.029639
  3 S  4.92600000E+01  0.059985
  3 S  2.01600000E+01  0.041325
  3 S  5.72000000E+00 -0.207474
  3 S  2.18200000E+00 -0.392889
  3 S  4.32700000E-01  0.632840

  4 S  1.57000000E-01  1.000000

  5 S  5.07000000E-02  1.000000

  6 P  3.99700000E+02  0.004475
  6 P  9.41900000E+01  0.034171
  6 P  2.97500000E+01  0.144250
  6 P  1.07700000E+01  0.353928
  6 P  4.11900000E+00  0.459085
  6 P  1.62500000E+00  0.206383
  6 P  4.72600000E-01  0.010214

  7 P  3.99700000E+02 -0.001163
  7 P  9.41900000E+01 -0.008657
  7 P  2.97500000E+01 -0.039089
  7 P  1.07700000E+01 -0.093463
  7 P  4.11900000E+00 -0.147994
  7 P  1.62500000E+00  0.030190
  7 P  4.72600000E-01  0.561573

  8 P  1.40700000E-01  1.000000

  9 P  3.99000000E-02  1.000000

 10 D  4.79000000E-01  1.000000

 11 D  1.52000000E-01  1.000000



 Summary of "ao basis" -> "ao basis" (cartesian)
 ------------------------------------------------------------------------------
       Tag                 Description            Shells   Functions and Types
 ---------------- ------------------------------  ------  ---------------------
 H                        aug-cc-pvdz                5        9   3s2p
 C                        aug-cc-pvdz                9       25   4s3p2d
 O                        aug-cc-pvdz                9       25   4s3p2d
 N                        aug-cc-pvdz                9       25   4s3p2d
 S                        aug-cc-pvdz               11       29   5s4p2d


                                 NWChem SCF Module
                                 -----------------



  ao basis        = "ao basis"
  functions       =   598
  atoms           =    34
  closed shells   =    73
  open shells     =     0
  charge          =   0.00
  wavefunction    = RHF 
  input vectors   = atomic
  output vectors  = ./ASN_CYS_2.movecs
  use symmetry    = F
  symmetry adapt  = F


 Summary of "ao basis" -> "ao basis" (cartesian)
 ------------------------------------------------------------------------------
       Tag                 Description            Shells   Functions and Types
 ---------------- ------------------------------  ------  ---------------------
 H                        aug-cc-pvdz                5        9   3s2p
 C                        aug-cc-pvdz                9       25   4s3p2d
 O                        aug-cc-pvdz                9       25   4s3p2d
 N                        aug-cc-pvdz                9       25   4s3p2d
 S                        aug-cc-pvdz               11       29   5s4p2d



 Forming initial guess at       0.7s


 !! The overlap matrix has   4 vectors deemed linearly dependent with
    eigenvalues:
 2.52D-06 4.37D-06 7.73D-06 9.02D-06


      Superposition of Atomic Density Guess
      -------------------------------------

 Sum of atomic energies:       -1260.74949013

      Non-variational initial energy
      ------------------------------

 Total energy =   -1271.904834
 1-e energy   =   -4777.677454
 2-e energy   =    1970.436413
 HOMO         =      -0.289315
 LUMO         =       0.006039


 Starting SCF solution at     228.1s



 ----------------------------------------------
         Quadratically convergent ROHF

 Convergence threshold     :          1.000E-04
 Maximum no. of iterations :           30
 Final Fock-matrix accuracy:          1.000E-10
 ----------------------------------------------


              iter       energy          gnorm     gmax       time
             ----- ------------------- --------- --------- --------
                 1    -1264.6888954354  2.65D+00  1.33D-01    480.2
                 2    -1265.0608835275  8.61D-01  3.61D-02    987.8
                 3    -1265.1269782681  6.96D-02  4.34D-03   1690.6
                 4    -1265.1277426739  4.18D-03  2.98D-04   2621.1
                 5    -1265.1277460661  8.89D-06  5.76D-07   4209.4


       Final RHF  results 
       ------------------ 

         Total SCF energy =  -1265.127746066091
      One-electron energy =  -4789.442081037887
      Two-electron energy =   1988.978129174101
 Nuclear repulsion energy =   1535.336205797695

        Time for solution =   3982.3s


             Final eigenvalues
             -----------------

              1      
    1  -91.9698
    2  -20.5471
    3  -20.5451
    4  -20.5287
    5  -20.5278
    6  -15.6151
    7  -15.6016
    8  -15.5999
    9  -15.5887
   10  -11.3766
   11  -11.3739
   12  -11.3619
   13  -11.3587
   14  -11.3234
   15  -11.3093
   16  -11.2919
   17  -11.2667
   18  -11.2535
   19   -8.9712
   20   -6.6535
   21   -6.6522
   22   -6.6501
   23   -1.4130
   24   -1.4036
   25   -1.3995
   26   -1.3879
   27   -1.2661
   28   -1.2521
   29   -1.2271
   30   -1.2261
   31   -1.0990
   32   -1.0803
   33   -1.0126
   34   -0.9861
   35   -0.9286
   36   -0.8794
   37   -0.8346
   38   -0.8131
   39   -0.7980
   40   -0.7906
   41   -0.7533
   42   -0.7400
   43   -0.7300
   44   -0.7057
   45   -0.6985
   46   -0.6920
   47   -0.6658
   48   -0.6582
   49   -0.6370
   50   -0.6268
   51   -0.6177
   52   -0.6136
   53   -0.6060
   54   -0.5956
   55   -0.5834
   56   -0.5763
   57   -0.5692
   58   -0.5542
   59   -0.5494
   60   -0.5462
   61   -0.5396
   62   -0.5326
   63   -0.5280
   64   -0.4732
   65   -0.4609
   66   -0.4435
   67   -0.4379
   68   -0.4295
   69   -0.4187
   70   -0.4145
   71   -0.4092
   72   -0.4005
   73   -0.3713
   74    0.0281
   75    0.0335
   76    0.0393
   77    0.0407
   78    0.0503
   79    0.0550
   80    0.0568
   81    0.0582
   82    0.0655
   83    0.0708

                       ROHF Final Molecular Orbital Analysis
                       -------------------------------------

 Vector   23  Occ=2.000000D+00  E=-1.412997D+00
              MO Center= -1.1D+00,  1.0D+00, -4.7D-01, r^2= 4.5D+00
   Bfn.  Coefficient  Atom+Function         Bfn.  Coefficient  Atom+Function  
  ----- ------------  ---------------      ----- ------------  ---------------
    80      0.286637   6 O  s                79      0.280752   6 O  s         
    54      0.197634   5 C  s               334      0.186508  20 O  s         
   333      0.177525  20 O  s                12      0.160005   2 C  s         

 Vector   24  Occ=2.000000D+00  E=-1.403621D+00
              MO Center=  2.1D-02,  7.9D-01, -2.6D-01, r^2= 5.9D+00
   Bfn.  Coefficient  Atom+Function         Bfn.  Coefficient  Atom+Function  
  ----- ------------  ---------------      ----- ------------  ---------------
   334      0.276283  20 O  s               333      0.257165  20 O  s         
    80     -0.217246   6 O  s                79     -0.213631   6 O  s         
   308      0.170048  19 C  s         

 Vector   25  Occ=2.000000D+00  E=-1.399495D+00
              MO Center=  1.1D+00,  3.3D+00,  6.5D-01, r^2= 3.6D+00
   Bfn.  Coefficient  Atom+Function         Bfn.  Coefficient  Atom+Function  
  ----- ------------  ---------------      ----- ------------  ---------------
   241      0.345607  15 O  s               240      0.325603  15 O  s         
   215      0.229467  14 C  s         

 Vector   26  Occ=2.000000D+00  E=-1.387916D+00
              MO Center=  1.0D+00, -2.4D+00, -1.3D+00, r^2= 2.0D+00
   Bfn.  Coefficient  Atom+Function         Bfn.  Coefficient  Atom+Function  
  ----- ------------  ---------------      ----- ------------  ---------------
   533      0.367094  31 O  s               532      0.334891  31 O  s         
   507      0.238741  30 C  s               558      0.152880  32 N  s         

 Vector   27  Occ=2.000000D+00  E=-1.266138D+00
              MO Center= -1.0D+00,  1.7D+00, -3.6D-01, r^2= 2.6D+00
   Bfn.  Coefficient  Atom+Function         Bfn.  Coefficient  Atom+Function  
  ----- ------------  ---------------      ----- ------------  ---------------
   105      0.392313   7 N  s               104      0.319731   7 N  s         
    80     -0.207581   6 O  s               359      0.175869  21 N  s         
    79     -0.172615   6 O  s         

 Vector   28  Occ=2.000000D+00  E=-1.252122D+00
              MO Center= -4.0D-02, -2.8D-01, -1.6D-01, r^2= 3.0D+00
   Bfn.  Coefficient  Atom+Function         Bfn.  Coefficient  Atom+Function  
  ----- ------------  ---------------      ----- ------------  ---------------
   359      0.394670  21 N  s               358      0.321937  21 N  s         
   334     -0.179992  20 O  s               105     -0.176913   7 N  s         

 Vector   29  Occ=2.000000D+00  E=-1.227052D+00
              MO Center=  1.9D+00,  2.4D+00,  8.5D-01, r^2= 5.6D+00
   Bfn.  Coefficient  Atom+Function         Bfn.  Coefficient  Atom+Function  
  ----- ------------  ---------------      ----- ------------  ---------------
   265      0.343217  16 N  s               266      0.311822  16 N  s         
   241     -0.205103  15 O  s               240     -0.176245  15 O  s         
   289      0.150037  17 H  s         

 Vector   30  Occ=2.000000D+00  E=-1.226135D+00
              MO Center=  1.8D+00, -2.3D+00, -3.6D-01, r^2= 5.5D+00
   Bfn.  Coefficient  Atom+Function         Bfn.  Coefficient  Atom+Function  
  ----- ------------  ---------------      ----- ------------  ---------------
   557      0.345949  32 N  s               558      0.341482  32 N  s         
   533     -0.204814  31 O  s               532     -0.171155  31 O  s         
   393     -0.160589  23 C  s               581      0.159862  33 H  s         

 Vector   31  Occ=2.000000D+00  E=-1.098969D+00
              MO Center= -4.0D-01, -1.2D+00,  1.5D-01, r^2= 7.6D+00
   Bfn.  Coefficient  Atom+Function         Bfn.  Coefficient  Atom+Function  
  ----- ------------  ---------------      ----- ------------  ---------------
   139      0.219627   9 C  s               426     -0.220569  25 C  s         
   392     -0.171456  23 C  s               393     -0.169903  23 C  s         
   470     -0.170416  28 S  s               433      0.152227  25 C  py        

 Vector   32  Occ=2.000000D+00  E=-1.080308D+00
              MO Center= -1.7D-01,  8.9D-01, -2.4D-01, r^2= 9.4D+00
   Bfn.  Coefficient  Atom+Function         Bfn.  Coefficient  Atom+Function  
  ----- ------------  ---------------      ----- ------------  ---------------
   172      0.217686  11 C  s               138      0.190404   9 C  s         
   145      0.152937   9 C  py              309      0.150479  19 C  s         

 Vector   33  Occ=2.000000D+00  E=-1.012631D+00
              MO Center= -2.2D+00,  2.4D+00,  7.9D-02, r^2= 5.2D+00
   Bfn.  Coefficient  Atom+Function         Bfn.  Coefficient  Atom+Function  
  ----- ------------  ---------------      ----- ------------  ---------------
    11      0.316214   2 C  s               173      0.276573  11 C  s         
   172      0.164673  11 C  s         

 Vector   34  Occ=2.000000D+00  E=-9.861213D-01
              MO Center= -1.9D-01, -2.0D+00,  3.0D-01, r^2= 7.9D+00
   Bfn.  Coefficient  Atom+Function         Bfn.  Coefficient  Atom+Function  
  ----- ------------  ---------------      ----- ------------  ---------------
   470      0.284480  28 S  s               392     -0.212033  23 C  s         
   433     -0.184488  25 C  py              471      0.180202  28 S  s         
   398     -0.171250  23 C  px        

 Vector   35  Occ=2.000000D+00  E=-9.286436D-01
              MO Center=  2.1D-01,  1.2D+00, -2.8D-01, r^2= 8.7D+00
   Bfn.  Coefficient  Atom+Function         Bfn.  Coefficient  Atom+Function  
  ----- ------------  ---------------      ----- ------------  ---------------
   173      0.300293  11 C  s               138     -0.217878   9 C  s         
   172      0.161017  11 C  s               393     -0.155199  23 C  s         
   180      0.150008  11 C  pz        

 Vector   36  Occ=2.000000D+00  E=-8.794057D-01
              MO Center= -1.5D-01, -2.9D+00,  2.6D-01, r^2= 4.2D+00
   Bfn.  Coefficient  Atom+Function         Bfn.  Coefficient  Atom+Function  
  ----- ------------  ---------------      ----- ------------  ---------------
   393      0.405043  23 C  s               471      0.290455  28 S  s         
   398      0.248162  23 C  px              470      0.225033  28 S  s         
   400     -0.219048  23 C  pz              426     -0.218625  25 C  s         
   513      0.185855  30 C  px              139      0.181779   9 C  s         
   508     -0.172588  30 C  s               395      0.164556  23 C  px        

 Vector   37  Occ=2.000000D+00  E=-8.345775D-01
              MO Center= -4.8D-01,  9.4D-01, -5.8D-02, r^2= 8.3D+00
   Bfn.  Coefficient  Atom+Function         Bfn.  Coefficient  Atom+Function  
  ----- ------------  ---------------      ----- ------------  ---------------
   139      0.276422   9 C  s               107     -0.218849   7 N  px        
    54      0.164452   5 C  s               471     -0.163902  28 S  s         
    60      0.161867   5 C  px              128     -0.160474   8 H  s         

 Vector   38  Occ=2.000000D+00  E=-8.130927D-01
              MO Center=  2.1D-01,  1.7D+00,  2.4D-02, r^2= 8.1D+00
   Bfn.  Coefficient  Atom+Function         Bfn.  Coefficient  Atom+Function  
  ----- ------------  ---------------      ----- ------------  ---------------
   217     -0.180765  14 C  s               128      0.175060   8 H  s         
   107      0.171157   7 N  px              145     -0.170615   9 C  py        
   105      0.156379   7 N  s               215      0.152618  14 C  s         

 Vector   39  Occ=2.000000D+00  E=-7.980101D-01
              MO Center=  1.3D+00, -1.1D+00, -1.4D-02, r^2= 1.0D+01
   Bfn.  Coefficient  Atom+Function         Bfn.  Coefficient  Atom+Function  
  ----- ------------  ---------------      ----- ------------  ---------------
   560      0.225656  32 N  px              581      0.177824  33 H  s         
   507     -0.173014  30 C  s         

 Vector   40  Occ=2.000000D+00  E=-7.905701D-01
              MO Center=  4.8D-01,  5.2D-01,  6.3D-02, r^2= 7.5D+00
   Bfn.  Coefficient  Atom+Function         Bfn.  Coefficient  Atom+Function  
  ----- ------------  ---------------      ----- ------------  ---------------
   309      0.341897  19 C  s               361      0.260944  21 N  px        
   382     -0.227137  22 H  s               359     -0.180294  21 N  s         
   139     -0.160608   9 C  s               334     -0.157908  20 O  s         
   398     -0.156251  23 C  px              383     -0.153389  22 H  s         

 Vector   41  Occ=2.000000D+00  E=-7.533292D-01
              MO Center=  1.3D+00,  3.7D-01,  1.0D-01, r^2= 9.9D+00
   Bfn.  Coefficient  Atom+Function         Bfn.  Coefficient  Atom+Function  
  ----- ------------  ---------------      ----- ------------  ---------------
   562     -0.224117  32 N  pz              309      0.212839  19 C  s         
   145      0.211007   9 C  py              269      0.205070  16 N  py        
   289     -0.201176  17 H  s               581     -0.191484  33 H  s         
   139     -0.169889   9 C  s               508      0.163172  30 C  s         

 Vector   42  Occ=2.000000D+00  E=-7.399656D-01
              MO Center=  1.5D+00, -2.7D-01,  2.2D-01, r^2= 1.1D+01
   Bfn.  Coefficient  Atom+Function         Bfn.  Coefficient  Atom+Function  
  ----- ------------  ---------------      ----- ------------  ---------------
   562      0.265982  32 N  pz              581      0.213718  33 H  s         
   269      0.202501  16 N  py              289     -0.198460  17 H  s         
   590     -0.171756  34 H  s               298      0.161095  18 H  s         

 Vector   43  Occ=2.000000D+00  E=-7.300318D-01
              MO Center=  1.2D-01,  1.1D+00, -1.2D-01, r^2= 7.9D+00
   Bfn.  Coefficient  Atom+Function         Bfn.  Coefficient  Atom+Function  
  ----- ------------  ---------------      ----- ------------  ---------------
   309      0.311950  19 C  s               145      0.305786   9 C  py        
   139     -0.278663   9 C  s               144     -0.267845   9 C  px        
   141     -0.201397   9 C  px              109     -0.182646   7 N  pz        
   312     -0.179925  19 C  py              128     -0.166072   8 H  s         
    55      0.163618   5 C  s         

 Vector   44  Occ=2.000000D+00  E=-7.056752D-01
              MO Center=  1.2D-01, -1.3D+00, -1.2D-01, r^2= 7.3D+00
   Bfn.  Coefficient  Atom+Function         Bfn.  Coefficient  Atom+Function  
  ----- ------------  ---------------      ----- ------------  ---------------
   397      0.247964  23 C  pz              509      0.211911  30 C  s         
   416      0.196709  24 H  s               428     -0.184150  25 C  s         
   513      0.160370  30 C  px              558     -0.160965  32 N  s         
   510      0.153480  30 C  px        

 Vector   45  Occ=2.000000D+00  E=-6.985410D-01
              MO Center= -1.1D+00,  3.4D-01, -3.6D-01, r^2= 1.1D+01
   Bfn.  Coefficient  Atom+Function         Bfn.  Coefficient  Atom+Function  
  ----- ------------  ---------------      ----- ------------  ---------------
    57      0.217913   5 C  px               83     -0.202739   6 O  py        
    80      0.186434   6 O  s               590      0.174138  34 H  s         

 Vector   46  Occ=2.000000D+00  E=-6.919619D-01
              MO Center=  2.4D-01,  2.0D+00, -5.6D-02, r^2= 7.8D+00
   Bfn.  Coefficient  Atom+Function         Bfn.  Coefficient  Atom+Function  
  ----- ------------  ---------------      ----- ------------  ---------------
   173      0.203654  11 C  s               270      0.203970  16 N  pz        
   143      0.193757   9 C  pz              298      0.180624  18 H  s         
   146      0.170578   9 C  pz              144     -0.154010   9 C  px        
   162     -0.154417  10 H  s               218     -0.153493  14 C  px        

 Vector   47  Occ=2.000000D+00  E=-6.657880D-01
              MO Center=  5.1D-01, -4.0D-01, -1.6D-02, r^2= 7.0D+00
   Bfn.  Coefficient  Atom+Function         Bfn.  Coefficient  Atom+Function  
  ----- ------------  ---------------      ----- ------------  ---------------
   336      0.268423  20 O  px              399     -0.229023  23 C  py        
   311     -0.222357  19 C  px              334      0.223089  20 O  s         
   362      0.209880  21 N  py              508     -0.193459  30 C  s         
   396     -0.183805  23 C  py              393      0.171427  23 C  s         

 Vector   48  Occ=2.000000D+00  E=-6.581660D-01
              MO Center=  1.7D-01,  2.6D+00, -1.8D-02, r^2= 7.1D+00
   Bfn.  Coefficient  Atom+Function         Bfn.  Coefficient  Atom+Function  
  ----- ------------  ---------------      ----- ------------  ---------------
   244      0.202121  15 O  py              245      0.201701  15 O  pz        
   241      0.192823  15 O  s               218      0.180286  14 C  px        
   173      0.177043  11 C  s               196      0.158461  12 H  s         

 Vector   49  Occ=2.000000D+00  E=-6.369675D-01
              MO Center= -6.6D-01, -5.9D-01, -8.8D-02, r^2= 1.1D+01
   Bfn.  Coefficient  Atom+Function         Bfn.  Coefficient  Atom+Function  
  ----- ------------  ---------------      ----- ------------  ---------------
   139      0.204971   9 C  s               427     -0.174590  25 C  s         
   310      0.166386  19 C  s               309     -0.155843  19 C  s         
   451      0.151209  26 H  s         

 Vector   50  Occ=2.000000D+00  E=-6.267958D-01
              MO Center= -1.2D+00, -6.4D-01, -2.4D-01, r^2= 1.2D+01
   Bfn.  Coefficient  Atom+Function         Bfn.  Coefficient  Atom+Function  
  ----- ------------  ---------------      ----- ------------  ---------------
   537     -0.229292  31 O  pz              428      0.216803  25 C  s         
   431     -0.204489  25 C  pz              451     -0.189155  26 H  s         
   139      0.183794   9 C  s               533      0.170429  31 O  s         
   393     -0.161384  23 C  s                16      0.156335   2 C  pz        
   459      0.155275  27 H  s         

 Vector   51  Occ=2.000000D+00  E=-6.176683D-01
              MO Center= -2.8D-02,  1.2D+00, -5.6D-02, r^2= 9.3D+00
   Bfn.  Coefficient  Atom+Function         Bfn.  Coefficient  Atom+Function  
  ----- ------------  ---------------      ----- ------------  ---------------
   336      0.222014  20 O  px              311     -0.193601  19 C  px        
    15      0.150960   2 C  py               35      0.150239   3 H  s         

 Vector   52  Occ=2.000000D+00  E=-6.136261D-01
              MO Center=  5.4D-01,  1.0D+00, -3.4D-01, r^2= 9.6D+00
   Bfn.  Coefficient  Atom+Function         Bfn.  Coefficient  Atom+Function  
  ----- ------------  ---------------      ----- ------------  ---------------
   175      0.196968  11 C  px              537     -0.181347  31 O  pz        
   142     -0.159959   9 C  py        

 Vector   53  Occ=2.000000D+00  E=-6.060073D-01
              MO Center= -2.8D-01,  2.3D-01, -3.7D-01, r^2= 1.1D+01
   Bfn.  Coefficient  Atom+Function         Bfn.  Coefficient  Atom+Function  
  ----- ------------  ---------------      ----- ------------  ---------------
   508      0.256718  30 C  s               393     -0.225169  23 C  s         
   537      0.200452  31 O  pz              417      0.196345  24 H  s         
    82     -0.174157   6 O  px              363      0.156738  21 N  pz        
   512     -0.153250  30 C  pz              399      0.151958  23 C  py        
    58      0.150026   5 C  py        

 Vector   54  Occ=2.000000D+00  E=-5.955882D-01
              MO Center= -6.1D-01,  1.4D+00, -2.0D-01, r^2= 1.1D+01
   Bfn.  Coefficient  Atom+Function         Bfn.  Coefficient  Atom+Function  
  ----- ------------  ---------------      ----- ------------  ---------------
    58      0.191978   5 C  py               83     -0.192884   6 O  py        
   244      0.184439  15 O  py        

 Vector   55  Occ=2.000000D+00  E=-5.834270D-01
              MO Center=  3.9D-01,  1.9D+00,  1.4D-01, r^2= 1.1D+01
   Bfn.  Coefficient  Atom+Function         Bfn.  Coefficient  Atom+Function  
  ----- ------------  ---------------      ----- ------------  ---------------
   244      0.225043  15 O  py              139      0.211723   9 C  s         
   220     -0.212079  14 C  pz              173     -0.183840  11 C  s         
   177      0.181200  11 C  pz              243     -0.174670  15 O  px        

 Vector   56  Occ=2.000000D+00  E=-5.763049D-01
              MO Center= -1.3D+00,  1.4D+00, -5.5D-02, r^2= 1.2D+01
   Bfn.  Coefficient  Atom+Function         Bfn.  Coefficient  Atom+Function  
  ----- ------------  ---------------      ----- ------------  ---------------
    44      0.249017   4 H  s                45      0.244536   4 H  s         
    15     -0.208447   2 C  py               14     -0.186620   2 C  px        
    35     -0.155294   3 H  s         

 Vector   57  Occ=2.000000D+00  E=-5.692096D-01
              MO Center= -6.2D-01, -6.0D-01, -1.4D-02, r^2= 1.3D+01
   Bfn.  Coefficient  Atom+Function         Bfn.  Coefficient  Atom+Function  
  ----- ------------  ---------------      ----- ------------  ---------------
   417      0.263179  24 H  s               360     -0.224333  21 N  s         
    44      0.190167   4 H  s               368      0.189950  21 N  py        
    14     -0.171876   2 C  px              416      0.161571  24 H  s         
    45      0.158965   4 H  s         

 Vector   58  Occ=2.000000D+00  E=-5.541645D-01
              MO Center=  4.9D-01,  9.8D-01, -3.9D-01, r^2= 1.0D+01
   Bfn.  Coefficient  Atom+Function         Bfn.  Coefficient  Atom+Function  
  ----- ------------  ---------------      ----- ------------  ---------------
   205      0.268007  13 H  s               176      0.230910  11 C  py        
   197     -0.201694  12 H  s               173      0.194377  11 C  s         
   217     -0.190704  14 C  s               206      0.172328  13 H  s         

 Vector   59  Occ=2.000000D+00  E=-5.493730D-01
              MO Center=  2.7D-01, -7.2D-01, -2.2D-01, r^2= 9.5D+00
   Bfn.  Coefficient  Atom+Function         Bfn.  Coefficient  Atom+Function  
  ----- ------------  ---------------      ----- ------------  ---------------
   173      0.222931  11 C  s               429      0.207895  25 C  px        
   395     -0.200680  23 C  px              535      0.195305  31 O  px        
   338     -0.154493  20 O  pz              432      0.154865  25 C  px        

 Vector   60  Occ=2.000000D+00  E=-5.462185D-01
              MO Center= -7.3D-01, -7.2D-01,  2.1D-01, r^2= 1.2D+01
   Bfn.  Coefficient  Atom+Function         Bfn.  Coefficient  Atom+Function  
  ----- ------------  ---------------      ----- ------------  ---------------
   450      0.176608  26 H  s               477     -0.176579  28 S  py        
   497      0.172501  29 H  s               430      0.161920  25 C  py        
   480     -0.161296  28 S  py              337     -0.150008  20 O  py        

 Vector   61  Occ=2.000000D+00  E=-5.396071D-01
              MO Center= -1.5D+00,  4.7D-01,  3.7D-02, r^2= 1.1D+01
   Bfn.  Coefficient  Atom+Function         Bfn.  Coefficient  Atom+Function  
  ----- ------------  ---------------      ----- ------------  ---------------
   139     -0.187766   9 C  s                 1      0.185782   1 H  s         
    84     -0.183122   6 O  pz               16      0.175769   2 C  pz        
   109     -0.176483   7 N  pz              427      0.159003  25 C  s         
    35     -0.157933   3 H  s               460     -0.152088  27 H  s         
   430      0.150867  25 C  py        

 Vector   62  Occ=2.000000D+00  E=-5.325531D-01
              MO Center=  5.4D-01,  2.0D+00, -2.3D-01, r^2= 7.0D+00
   Bfn.  Coefficient  Atom+Function         Bfn.  Coefficient  Atom+Function  
  ----- ------------  ---------------      ----- ------------  ---------------
   175      0.242937  11 C  px              179      0.223886  11 C  py        
   141     -0.211604   9 C  px              243     -0.183079  15 O  px        
   139      0.177818   9 C  s               142     -0.176761   9 C  py        
   178      0.174271  11 C  px              162      0.173256  10 H  s         
   196      0.155365  12 H  s         

 Vector   63  Occ=2.000000D+00  E=-5.279564D-01
              MO Center=  2.2D-01, -1.1D+00, -7.9D-02, r^2= 7.7D+00
   Bfn.  Coefficient  Atom+Function         Bfn.  Coefficient  Atom+Function  
  ----- ------------  ---------------      ----- ------------  ---------------
   393      0.281992  23 C  s               427     -0.219850  25 C  s         
   173      0.212619  11 C  s               338     -0.211140  20 O  pz        
   432     -0.202636  25 C  px              416      0.197926  24 H  s         
   433     -0.190178  25 C  py              395      0.184055  23 C  px        
   417      0.181817  24 H  s               341     -0.160538  20 O  pz        

 Vector   64  Occ=2.000000D+00  E=-4.731794D-01
              MO Center= -4.6D-01, -3.0D+00,  8.1D-01, r^2= 7.5D+00
   Bfn.  Coefficient  Atom+Function         Bfn.  Coefficient  Atom+Function  
  ----- ------------  ---------------      ----- ------------  ---------------
   471      0.344132  28 S  s               478      0.333533  28 S  pz        
   481      0.260805  28 S  pz              337     -0.236758  20 O  py        
   433      0.223530  25 C  py              340     -0.195857  20 O  py        
   477     -0.170097  28 S  py              431     -0.167449  25 C  pz        
   497     -0.165709  29 H  s               393     -0.162929  23 C  s         

 Vector   65  Occ=2.000000D+00  E=-4.608723D-01
              MO Center= -2.3D-01, -1.4D-01, -2.6D-02, r^2= 9.0D+00
   Bfn.  Coefficient  Atom+Function         Bfn.  Coefficient  Atom+Function  
  ----- ------------  ---------------      ----- ------------  ---------------
   337      0.347487  20 O  py              340      0.281475  20 O  py        
    84      0.231950   6 O  pz              139     -0.195448   9 C  s         
   109     -0.182940   7 N  pz               87      0.178506   6 O  pz        
   471      0.167778  28 S  s               478      0.163845  28 S  pz        
   112     -0.157285   7 N  pz        

 Vector   66  Occ=2.000000D+00  E=-4.435196D-01
              MO Center= -1.4D+00,  4.6D-01, -6.7D-01, r^2= 7.1D+00
   Bfn.  Coefficient  Atom+Function         Bfn.  Coefficient  Atom+Function  
  ----- ------------  ---------------      ----- ------------  ---------------
    82      0.427186   6 O  px               85      0.353212   6 O  px        
   535      0.208570  31 O  px              360     -0.176590  21 N  s         
   538      0.164072  31 O  px              105     -0.162040   7 N  s         
   310      0.158032  19 C  s                13     -0.154260   2 C  s         
   309      0.151604  19 C  s         

 Vector   67  Occ=2.000000D+00  E=-4.378996D-01
              MO Center= -1.0D-01, -3.5D-01, -7.0D-01, r^2= 9.0D+00
   Bfn.  Coefficient  Atom+Function         Bfn.  Coefficient  Atom+Function  
  ----- ------------  ---------------      ----- ------------  ---------------
   535      0.302668  31 O  px               82     -0.271237   6 O  px        
   538      0.235267  31 O  px               85     -0.221142   6 O  px        
   363     -0.219510  21 N  pz              338      0.199540  20 O  pz        
   366     -0.197261  21 N  pz               13      0.182275   2 C  s         
   310     -0.169145  19 C  s               536     -0.168809  31 O  py        

 Vector   68  Occ=2.000000D+00  E=-4.295323D-01
              MO Center=  9.4D-01,  3.1D+00,  3.5D-01, r^2= 7.3D+00
   Bfn.  Coefficient  Atom+Function         Bfn.  Coefficient  Atom+Function  
  ----- ------------  ---------------      ----- ------------  ---------------
   245      0.428402  15 O  pz              248      0.334267  15 O  pz        
   243      0.273332  15 O  px              246      0.224970  15 O  px        
   177      0.177458  11 C  pz              223     -0.171870  14 C  pz        
   535     -0.167844  31 O  px              173     -0.165399  11 C  s         

 Vector   69  Occ=2.000000D+00  E=-4.187084D-01
              MO Center=  1.2D+00, -2.4D+00, -7.7D-01, r^2= 5.9D+00
   Bfn.  Coefficient  Atom+Function         Bfn.  Coefficient  Atom+Function  
  ----- ------------  ---------------      ----- ------------  ---------------
   536      0.383118  31 O  py              539      0.309012  31 O  py        
   561     -0.292540  32 N  py              564     -0.270665  32 N  py        
   560     -0.238515  32 N  px              563     -0.184123  32 N  px        
   174     -0.151273  11 C  s         

 Vector   70  Occ=2.000000D+00  E=-4.145056D-01
              MO Center=  1.5D+00,  2.5D+00,  7.0D-01, r^2= 8.1D+00
   Bfn.  Coefficient  Atom+Function         Bfn.  Coefficient  Atom+Function  
  ----- ------------  ---------------      ----- ------------  ---------------
   268      0.318903  16 N  px              271      0.303552  16 N  px        
   244     -0.238408  15 O  py              245      0.222187  15 O  pz        
   269      0.200187  16 N  py              247     -0.188759  15 O  py        
   243     -0.178784  15 O  px              248      0.175627  15 O  pz        
   272      0.155423  16 N  py              197      0.150801  12 H  s         

 Vector   71  Occ=2.000000D+00  E=-4.092179D-01
              MO Center= -5.0D-01,  1.1D+00, -4.3D-01, r^2= 5.2D+00
   Bfn.  Coefficient  Atom+Function         Bfn.  Coefficient  Atom+Function  
  ----- ------------  ---------------      ----- ------------  ---------------
   109      0.301536   7 N  pz              112      0.271060   7 N  pz        
   337      0.233854  20 O  py               84     -0.221140   6 O  pz        
   108     -0.208175   7 N  py              111     -0.197098   7 N  py        
   173     -0.190865  11 C  s               340      0.186237  20 O  py        
    87     -0.172902   6 O  pz              145      0.166659   9 C  py        

 Vector   72  Occ=2.000000D+00  E=-4.004643D-01
              MO Center=  7.1D-01, -5.2D-01, -2.4D-01, r^2= 6.2D+00
   Bfn.  Coefficient  Atom+Function         Bfn.  Coefficient  Atom+Function  
  ----- ------------  ---------------      ----- ------------  ---------------
   363      0.332003  21 N  pz              366      0.299526  21 N  pz        
   535      0.225772  31 O  px              338     -0.211150  20 O  pz        
   538      0.191267  31 O  px              341     -0.170808  20 O  pz        
   451      0.160853  26 H  s               337     -0.159368  20 O  py        

 Vector   73  Occ=2.000000D+00  E=-3.713304D-01
              MO Center= -6.1D-01, -4.1D+00,  1.0D+00, r^2= 2.7D+00
   Bfn.  Coefficient  Atom+Function         Bfn.  Coefficient  Atom+Function  
  ----- ------------  ---------------      ----- ------------  ---------------
   476      0.491682  28 S  px              479      0.472062  28 S  px        
   427      0.237174  25 C  s               399      0.216972  23 C  py        

 Vector   74  Occ=0.000000D+00  E= 2.805250D-02
              MO Center=  3.7D-01,  2.3D-01,  2.1D+00, r^2= 3.2D+01
   Bfn.  Coefficient  Atom+Function         Bfn.  Coefficient  Atom+Function  
  ----- ------------  ---------------      ----- ------------  ---------------
   310      2.646882  19 C  s               509      2.386662  30 C  s         
   140      2.098882   9 C  s               384      1.904027  22 H  s         
    63     -1.891988   5 C  px              174      1.713312  11 C  s         
     3     -1.642538   1 H  s               559     -1.473540  32 N  s         
   394      1.424382  23 C  s               300     -1.306166  18 H  s         

 Vector   75  Occ=0.000000D+00  E= 3.352532D-02
              MO Center=  1.0D-02, -1.0D+00,  5.3D-01, r^2= 4.5D+01
   Bfn.  Coefficient  Atom+Function         Bfn.  Coefficient  Atom+Function  
  ----- ------------  ---------------      ----- ------------  ---------------
    63      3.377430   5 C  px              559     -3.335921  32 N  s         
   147      3.304915   9 C  px              318     -3.054167  19 C  py        
   516      2.259312  30 C  px              310     -1.825724  19 C  s         
    12     -1.686445   2 C  s               517     -1.637486  30 C  py        
   592     -1.609822  34 H  s               583     -1.480894  33 H  s         

 Vector   76  Occ=0.000000D+00  E= 3.928911D-02
              MO Center=  2.6D-01,  1.7D+00, -6.1D-01, r^2= 3.9D+01
   Bfn.  Coefficient  Atom+Function         Bfn.  Coefficient  Atom+Function  
  ----- ------------  ---------------      ----- ------------  ---------------
   174      3.479905  11 C  s               207      2.698944  13 H  s         
   267     -2.612962  16 N  s               310     -2.319111  19 C  s         
   318     -2.116896  19 C  py               37      1.894340   3 H  s         
   509      1.894599  30 C  s               130     -1.769292   8 H  s         
   183      1.728000  11 C  pz              384     -1.702496  22 H  s         

 Vector   77  Occ=0.000000D+00  E= 4.067071D-02
              MO Center=  1.2D+00,  1.2D+00,  4.9D-01, r^2= 4.2D+01
   Bfn.  Coefficient  Atom+Function         Bfn.  Coefficient  Atom+Function  
  ----- ------------  ---------------      ----- ------------  ---------------
    63      3.771219   5 C  px              147      3.708784   9 C  px        
   559      2.824032  32 N  s                13      2.480415   2 C  s         
   509     -2.489963  30 C  s               182      2.325805  11 C  py        
   360      2.332877  21 N  s               149     -2.197287   9 C  pz        
    56      1.811586   5 C  s               300     -1.797841  18 H  s         

 Vector   78  Occ=0.000000D+00  E= 5.028875D-02
              MO Center= -1.5D+00,  7.6D-01,  4.2D-01, r^2= 4.0D+01
   Bfn.  Coefficient  Atom+Function         Bfn.  Coefficient  Atom+Function  
  ----- ------------  ---------------      ----- ------------  ---------------
   452      3.091203  26 H  s                63     -2.544075   5 C  px        
   509     -2.553135  30 C  s                37     -2.420876   3 H  s         
   401      2.217652  23 C  px              428      2.145543  25 C  s         
   149      2.114146   9 C  pz              174      2.080308  11 C  s         
   147     -1.959343   9 C  px              516      1.887269  30 C  px        

 Vector   79  Occ=0.000000D+00  E= 5.502935D-02
              MO Center= -4.1D-02,  5.7D-01,  3.2D-01, r^2= 4.3D+01
   Bfn.  Coefficient  Atom+Function         Bfn.  Coefficient  Atom+Function  
  ----- ------------  ---------------      ----- ------------  ---------------
   418      3.440167  24 H  s               207      3.169341  13 H  s         
    46     -2.966473   4 H  s               198     -2.731121  12 H  s         
   174      2.685213  11 C  s               401     -2.558379  23 C  px        
    56     -2.349495   5 C  s                63     -2.093272   5 C  px        
   106      2.053753   7 N  s               267     -1.910446  16 N  s         

 Vector   80  Occ=0.000000D+00  E= 5.683596D-02
              MO Center=  3.7D-01, -2.5D+00,  5.5D-01, r^2= 4.2D+01
   Bfn.  Coefficient  Atom+Function         Bfn.  Coefficient  Atom+Function  
  ----- ------------  ---------------      ----- ------------  ---------------
   499     -2.857194  29 H  s               217      2.655246  14 C  s         
    46      2.225862   4 H  s               300     -1.809339  18 H  s         
   401     -1.796392  23 C  px              583      1.709738  33 H  s         
   318     -1.621408  19 C  py              130     -1.570995   8 H  s         
   267     -1.491416  16 N  s               291      1.422672  17 H  s         

 Vector   81  Occ=0.000000D+00  E= 5.815550D-02
              MO Center= -9.2D-01, -2.7D-02,  7.7D-01, r^2= 4.2D+01
   Bfn.  Coefficient  Atom+Function         Bfn.  Coefficient  Atom+Function  
  ----- ------------  ---------------      ----- ------------  ---------------
     3      3.719149   1 H  s                46     -2.980634   4 H  s         
   106      2.449085   7 N  s               198      2.268777  12 H  s         
   461     -2.097862  27 H  s               592      2.086342  34 H  s         
   559      1.574741  32 N  s                56     -1.555958   5 C  s         
   291     -1.479574  17 H  s               310     -1.397393  19 C  s         

 Vector   82  Occ=0.000000D+00  E= 6.549533D-02
              MO Center=  9.7D-01,  8.7D-02, -1.6D+00, r^2= 3.9D+01
   Bfn.  Coefficient  Atom+Function         Bfn.  Coefficient  Atom+Function  
  ----- ------------  ---------------      ----- ------------  ---------------
   164      6.067578  10 H  s               149      3.946300   9 C  pz        
   198     -3.830103  12 H  s                63     -2.669514   5 C  px        
   148      2.405409   9 C  py              472      2.324851  28 S  s         
   418      2.119479  24 H  s               318      2.027018  19 C  py        
   461      1.925575  27 H  s               317      1.847847  19 C  px        

 Vector   83  Occ=0.000000D+00  E= 7.083224D-02
              MO Center=  2.7D-01,  1.4D+00, -5.9D-01, r^2= 4.3D+01
   Bfn.  Coefficient  Atom+Function         Bfn.  Coefficient  Atom+Function  
  ----- ------------  ---------------      ----- ------------  ---------------
   207      5.247580  13 H  s                13      4.011364   2 C  s         
   418     -4.027555  24 H  s               164     -3.709373  10 H  s         
   113      3.226313   7 N  px              452      3.051841  26 H  s         
   198     -2.913643  12 H  s               318     -2.569145  19 C  py        
   428     -2.567744  25 C  s                63      2.359211   5 C  px        

 Vector   84  Occ=0.000000D+00  E= 7.279016D-02
              MO Center= -8.0D-01,  6.3D-01,  3.4D-01, r^2= 4.3D+01
   Bfn.  Coefficient  Atom+Function         Bfn.  Coefficient  Atom+Function  
  ----- ------------  ---------------      ----- ------------  ---------------
    37      3.942119   3 H  s               174      3.826751  11 C  s         
     3     -2.822800   1 H  s               583     -2.773508  33 H  s         
   164     -2.744192  10 H  s               148     -2.552189   9 C  py        
    56     -2.374076   5 C  s               428     -2.324743  25 C  s         
   452      2.275148  26 H  s                46     -2.134517   4 H  s         

 Vector   85  Occ=0.000000D+00  E= 7.646198D-02
              MO Center= -1.4D+00, -1.5D+00,  3.4D-01, r^2= 3.8D+01
   Bfn.  Coefficient  Atom+Function         Bfn.  Coefficient  Atom+Function  
  ----- ------------  ---------------      ----- ------------  ---------------
   217      5.917959  14 C  s               461     -5.529229  27 H  s         
   418      4.889397  24 H  s               174     -4.143129  11 C  s         
   583     -3.378319  33 H  s                46      2.993418   4 H  s         
   130     -2.616705   8 H  s               384      2.612329  22 H  s         
   401     -2.142096  23 C  px              428      1.980366  25 C  s         

 Vector   86  Occ=0.000000D+00  E= 8.102155D-02
              MO Center= -5.2D-01, -9.7D-01,  6.9D-01, r^2= 4.0D+01
   Bfn.  Coefficient  Atom+Function         Bfn.  Coefficient  Atom+Function  
  ----- ------------  ---------------      ----- ------------  ---------------
   418      8.528635  24 H  s               452     -5.781592  26 H  s         
   403     -4.245760  23 C  pz              164     -3.805463  10 H  s         
   428     -3.643862  25 C  s               461      3.598401  27 H  s         
   207      3.509624  13 H  s                13      3.273014   2 C  s         
   310     -3.210433  19 C  s               472      3.154669  28 S  s         

 Vector   87  Occ=0.000000D+00  E= 8.515528D-02
              MO Center=  1.9D+00,  1.4D+00,  6.2D-01, r^2= 3.8D+01
   Bfn.  Coefficient  Atom+Function         Bfn.  Coefficient  Atom+Function  
  ----- ------------  ---------------      ----- ------------  ---------------
   291     -6.534591  17 H  s               198      6.308252  12 H  s         
   217     -5.128026  14 C  s               207     -4.598742  13 H  s         
   182      3.400374  11 C  py              318      2.933500  19 C  py        
   300      2.286147  18 H  s               130      2.235032   8 H  s         
   140      2.202874   9 C  s               499     -2.168920  29 H  s         

 Vector   88  Occ=0.000000D+00  E= 9.710475D-02
              MO Center= -1.6D+00,  2.1D+00,  4.2D-01, r^2= 3.4D+01
   Bfn.  Coefficient  Atom+Function         Bfn.  Coefficient  Atom+Function  
  ----- ------------  ---------------      ----- ------------  ---------------
   217     17.288385  14 C  s               384     -7.569474  22 H  s         
   130     -6.275552   8 H  s               174     -5.034904  11 C  s         
   226     -3.861005  14 C  pz              182     -3.794075  11 C  py        
   461      3.556975  27 H  s               267     -3.274427  16 N  s         
   147     -3.057759   9 C  px              183     -2.921879  11 C  pz        

 Vector   89  Occ=0.000000D+00  E= 1.028745D-01
              MO Center= -5.7D-01, -2.9D+00,  9.0D-01, r^2= 3.6D+01
   Bfn.  Coefficient  Atom+Function         Bfn.  Coefficient  Atom+Function  
  ----- ------------  ---------------      ----- ------------  ---------------
   472      8.311490  28 S  s               318      6.714212  19 C  py        
   509     -5.855343  30 C  s               401      5.722062  23 C  px        
   402      5.327124  23 C  py              418     -5.106720  24 H  s         
   559      4.589298  32 N  s               436      4.333096  25 C  py        
   483      3.822434  28 S  py              499      3.723248  29 H  s         

 Vector   90  Occ=0.000000D+00  E= 1.054507D-01
              MO Center=  6.7D-01,  2.2D+00, -2.2D-01, r^2= 3.6D+01
   Bfn.  Coefficient  Atom+Function         Bfn.  Coefficient  Atom+Function  
  ----- ------------  ---------------      ----- ------------  ---------------
   217     21.561335  14 C  s               318     -9.610398  19 C  py        
   148     -8.848588   9 C  py              310     -7.965589  19 C  s         
   267     -6.965874  16 N  s               140     -6.774787   9 C  s         
   428     -6.538179  25 C  s               225     -5.910319  14 C  py        
    13      5.407963   2 C  s               384     -4.563664  22 H  s         

 Vector   91  Occ=0.000000D+00  E= 1.155016D-01
              MO Center= -3.5D-01,  1.4D+00, -6.5D-01, r^2= 3.5D+01
   Bfn.  Coefficient  Atom+Function         Bfn.  Coefficient  Atom+Function  
[...]
   217     19.349525  14 C  s               559    -16.369856  32 N  s         
   318     -9.442410  19 C  py              360     -8.289470  21 N  s         
   267     -7.270642  16 N  s               403     -6.657994  23 C  pz        
   106     -6.534689   7 N  s               367      6.002937  21 N  px        
   428      5.649866  25 C  s               518      5.563317  30 C  pz        

 Vector  175  Occ=0.000000D+00  E= 4.338321D-01
              MO Center= -4.8D-01,  5.3D-01, -3.9D-01, r^2= 2.2D+01
   Bfn.  Coefficient  Atom+Function         Bfn.  Coefficient  Atom+Function  
  ----- ------------  ---------------      ----- ------------  ---------------
   217      8.428599  14 C  s               559      8.124464  32 N  s         
   163      7.085523  10 H  s               317      6.970112  19 C  px        
   310     -6.016672  19 C  s                12      5.329692   2 C  s         
   140     -5.264801   9 C  s               267     -4.863116  16 N  s         
   509     -4.790522  30 C  s               181     -4.096113  11 C  px        

 Vector  176  Occ=0.000000D+00  E= 4.359083D-01
              MO Center= -7.4D-01,  1.2D+00, -5.6D-01, r^2= 1.8D+01
   Bfn.  Coefficient  Atom+Function         Bfn.  Coefficient  Atom+Function  
  ----- ------------  ---------------      ----- ------------  ---------------
   509     14.189417  30 C  s               360    -13.558833  21 N  s         
    13    -12.549383   2 C  s                63    -11.760978   5 C  px        
   140     11.334914   9 C  s               310      9.077117  19 C  s         
   559     -8.849793  32 N  s               217     -8.709968  14 C  s         
   317     -7.683379  19 C  px              106      7.381092   7 N  s         

 Vector  177  Occ=0.000000D+00  E= 4.403088D-01
              MO Center=  2.4D-01, -1.2D-01,  6.0D-01, r^2= 2.0D+01
   Bfn.  Coefficient  Atom+Function         Bfn.  Coefficient  Atom+Function  
  ----- ------------  ---------------      ----- ------------  ---------------
   217     13.813544  14 C  s               267     -9.156895  16 N  s         
   403      8.134323  23 C  pz              106     -7.830826   7 N  s         
   360      7.766825  21 N  s               428     -7.648926  25 C  s         
   149      6.562952   9 C  pz              509     -6.464405  30 C  s         
    13      6.002351   2 C  s               368     -5.800524  21 N  py        

 Vector  178  Occ=0.000000D+00  E= 4.420155D-01
              MO Center= -1.1D+00,  7.1D-01,  3.9D-01, r^2= 2.3D+01
   Bfn.  Coefficient  Atom+Function         Bfn.  Coefficient  Atom+Function  
  ----- ------------  ---------------      ----- ------------  ---------------
   217      6.996549  14 C  s               403      6.409433  23 C  pz        
   360      6.377073  21 N  s               310     -6.275775  19 C  s         
   140     -6.082410   9 C  s                13      5.445716   2 C  s         
     2      5.169894   1 H  s                63      4.826804   5 C  px        
   428     -4.843788  25 C  s                56     -4.728419   5 C  s         

 Vector  179  Occ=0.000000D+00  E= 4.453420D-01
              MO Center= -8.8D-01,  1.2D+00,  1.6D-01, r^2= 2.2D+01
   Bfn.  Coefficient  Atom+Function         Bfn.  Coefficient  Atom+Function  
  ----- ------------  ---------------      ----- ------------  ---------------
    56     17.066561   5 C  s               147     16.417867   9 C  px        
   174    -13.543791  11 C  s               113     13.420676   7 N  px        
   428     13.309438  25 C  s               217    -12.541809  14 C  s         
    13     10.013181   2 C  s               148      7.513969   9 C  py        
   149     -6.954267   9 C  pz               63      6.091476   5 C  px        

 Vector  180  Occ=0.000000D+00  E= 4.554721D-01
              MO Center= -1.8D-01,  1.1D+00,  3.1D-01, r^2= 2.3D+01
   Bfn.  Coefficient  Atom+Function         Bfn.  Coefficient  Atom+Function  
  ----- ------------  ---------------      ----- ------------  ---------------
   174     25.028805  11 C  s               310    -24.436556  19 C  s         
    13     20.729624   2 C  s               140    -15.524180   9 C  s         
   148    -13.341754   9 C  py              428     10.480678  25 C  s         
    63      8.694079   5 C  px               12      8.460242   2 C  s         
   360      8.264816  21 N  s               217     -8.159998  14 C  s         

 Vector  181  Occ=0.000000D+00  E= 4.606195D-01
              MO Center=  9.7D-01,  1.9D-01, -2.4D-03, r^2= 2.1D+01
   Bfn.  Coefficient  Atom+Function         Bfn.  Coefficient  Atom+Function  
  ----- ------------  ---------------      ----- ------------  ---------------
   174     16.273431  11 C  s               267    -11.362402  16 N  s         
   317     10.301810  19 C  px              197    -10.037055  12 H  s         
   173      9.643161  11 C  s                13      7.067098   2 C  s         
    56     -6.964225   5 C  s               148     -6.884618   9 C  py        
   206     -6.482426  13 H  s               401     -6.383740  23 C  px        

 Vector  182  Occ=0.000000D+00  E= 4.651446D-01
              MO Center= -1.3D-01, -1.9D+00, -1.4D-01, r^2= 1.8D+01
   Bfn.  Coefficient  Atom+Function         Bfn.  Coefficient  Atom+Function  
  ----- ------------  ---------------      ----- ------------  ---------------
   428    -11.984371  25 C  s               174     11.765787  11 C  s         
   460     10.458364  27 H  s               147    -10.004762   9 C  px        
    56     -9.525955   5 C  s               318      7.061262  19 C  py        
   319     -6.822728  19 C  pz              217     -5.867360  14 C  s         
   427     -5.470640  25 C  s               149      5.199291   9 C  pz        

 Vector  183  Occ=0.000000D+00  E= 4.675138D-01
              MO Center= -8.7D-02,  4.2D-01, -4.0D-01, r^2= 1.9D+01
   Bfn.  Coefficient  Atom+Function         Bfn.  Coefficient  Atom+Function  
  ----- ------------  ---------------      ----- ------------  ---------------
   174      7.999150  11 C  s               318     -6.871239  19 C  py        
   360     -6.631604  21 N  s               509      6.627027  30 C  s         
   317     -6.278287  19 C  px              149     -6.073389   9 C  pz        
   402      5.771516  23 C  py              113      5.582322   7 N  px        
   163     -5.447661  10 H  s               267     -5.395740  16 N  s         

 Vector  184  Occ=0.000000D+00  E= 4.723802D-01
              MO Center= -9.2D-02, -1.9D+00, -6.4D-02, r^2= 2.1D+01
   Bfn.  Coefficient  Atom+Function         Bfn.  Coefficient  Atom+Function  
  ----- ------------  ---------------      ----- ------------  ---------------
   384      6.131457  22 H  s               437     -5.984276  25 C  pz        
   106      5.912933   7 N  s               402      5.623164  23 C  py        
   360     -5.228545  21 N  s               451      5.048477  26 H  s         
   428     -4.989427  25 C  s               174      4.882957  11 C  s         
   318     -4.830451  19 C  py              310     -4.400286  19 C  s         

 Vector  185  Occ=0.000000D+00  E= 4.768784D-01
              MO Center=  5.8D-01, -2.2D-01, -9.3D-02, r^2= 2.1D+01
   Bfn.  Coefficient  Atom+Function         Bfn.  Coefficient  Atom+Function  
  ----- ------------  ---------------      ----- ------------  ---------------
   217     10.076621  14 C  s               559      9.995298  32 N  s         
    13      8.029667   2 C  s               310     -7.709932  19 C  s         
   428      7.740210  25 C  s               174     -7.320080  11 C  s         
    63      6.281226   5 C  px              402      6.266508  23 C  py        
   140     -6.151718   9 C  s               509     -5.721663  30 C  s         

 Vector  186  Occ=0.000000D+00  E= 4.806945D-01
              MO Center=  4.5D-01,  6.0D-01,  5.3D-02, r^2= 2.1D+01
   Bfn.  Coefficient  Atom+Function         Bfn.  Coefficient  Atom+Function  
  ----- ------------  ---------------      ----- ------------  ---------------
   217     17.316573  14 C  s               428    -12.434216  25 C  s         
    13      9.880968   2 C  s               148     -8.380669   9 C  py        
   360      7.685275  21 N  s               310     -7.465508  19 C  s         
   267     -7.427324  16 N  s               402     -7.358301  23 C  py        
   140     -6.551982   9 C  s               181     -5.708064  11 C  px        

 Vector  187  Occ=0.000000D+00  E= 4.882565D-01
              MO Center= -9.8D-03,  7.6D-02,  1.9D-01, r^2= 2.0D+01
   Bfn.  Coefficient  Atom+Function         Bfn.  Coefficient  Atom+Function  
  ----- ------------  ---------------      ----- ------------  ---------------
   310     19.776666  19 C  s               147    -15.057061   9 C  px        
    13    -14.509734   2 C  s               318     14.063427  19 C  py        
   140     12.035847   9 C  s               106    -11.935164   7 N  s         
    63    -11.274988   5 C  px              149      8.820665   9 C  pz        
   174     -8.313503  11 C  s               319     -7.180283  19 C  pz        

 Vector  188  Occ=0.000000D+00  E= 4.902415D-01
              MO Center=  4.1D-02,  4.6D-02, -6.8D-02, r^2= 2.3D+01
   Bfn.  Coefficient  Atom+Function         Bfn.  Coefficient  Atom+Function  
  ----- ------------  ---------------      ----- ------------  ---------------
   310     18.229777  19 C  s               428    -17.980858  25 C  s         
    13    -12.930124   2 C  s               509     12.053817  30 C  s         
   106    -11.015549   7 N  s               113     -9.548421   7 N  px        
   140      8.984787   9 C  s               559     -8.372700  32 N  s         
    63     -7.471273   5 C  px              360     -6.949555  21 N  s         

 Vector  189  Occ=0.000000D+00  E= 4.953556D-01
              MO Center= -5.9D-02,  3.1D-03, -7.5D-02, r^2= 2.2D+01
   Bfn.  Coefficient  Atom+Function         Bfn.  Coefficient  Atom+Function  
  ----- ------------  ---------------      ----- ------------  ---------------
   428     21.838899  25 C  s               402     13.603314  23 C  py        
   360    -10.852046  21 N  s               310     -9.833822  19 C  s         
   401      9.374600  23 C  px              173      8.984575  11 C  s         
   174      8.982292  11 C  s               206     -6.878162  13 H  s         
   318      6.904090  19 C  py              197     -6.581180  12 H  s         

 Vector  190  Occ=0.000000D+00  E= 4.985876D-01
              MO Center= -8.6D-02,  8.9D-01, -2.0D-01, r^2= 1.9D+01
   Bfn.  Coefficient  Atom+Function         Bfn.  Coefficient  Atom+Function  
  ----- ------------  ---------------      ----- ------------  ---------------
   174     28.478110  11 C  s               310    -17.737436  19 C  s         
   217    -13.460562  14 C  s                56    -12.382930   5 C  s         
   140    -11.520294   9 C  s               173      9.668451  11 C  s         
    13      9.606283   2 C  s               206     -9.555879  13 H  s         
   148     -9.404880   9 C  py              360      8.574549  21 N  s         

 Vector  191  Occ=0.000000D+00  E= 5.002617D-01
              MO Center=  7.5D-02, -6.6D-01, -1.1D-01, r^2= 2.0D+01
   Bfn.  Coefficient  Atom+Function         Bfn.  Coefficient  Atom+Function  
  ----- ------------  ---------------      ----- ------------  ---------------
   509     12.123929  30 C  s               174     10.887956  11 C  s         
   427    -10.354388  25 C  s               113     -8.957236   7 N  px        
   451      8.992585  26 H  s               360     -8.940557  21 N  s         
    13     -8.332493   2 C  s               148      8.151191   9 C  py        
    63     -8.041207   5 C  px              368      7.166175  21 N  py        


 center of mass
 --------------
 x =   0.02244976 y =  -0.03296731 z =  -0.01133003

 moments of inertia (a.u.)
 ------------------
        8351.542856221906          -0.000000000000          -0.000000000008
          -0.000000000000        3341.606038703035           0.000000000001
          -0.000000000008           0.000000000001       10132.315309881336

  Mulliken analysis of the total density
  --------------------------------------

    Atom       Charge   Shell Charges
 -----------   ------   -------------------------------------------------------
    1 H    1     0.86   0.76  0.13 -0.01  0.03 -0.06
    2 C    6     6.13   2.01  0.66  0.19  0.04  2.07  1.02 -0.01  0.06  0.09
    3 H    1     0.85   0.76  0.12 -0.00  0.03 -0.06
    4 H    1     1.04   0.76  0.28  0.01  0.03 -0.05
    5 C    6     5.18   2.01  0.68  0.07 -0.07  1.89  0.37  0.01  0.24 -0.01
    6 O    8     8.80   2.01  0.82  1.00  0.17  2.80  1.87  0.13  0.02 -0.01
    7 N    7     7.60   2.01  0.72  0.83 -0.06  2.45  1.43  0.13  0.05  0.03
    8 H    1     0.96   0.75  0.22 -0.00  0.06 -0.06
    9 C    6     6.72   2.01  0.66  0.18 -0.01  1.99  1.52  0.06  0.14  0.17
   10 H    1     0.99   0.78  0.17  0.01  0.03  0.01
   11 C    6     6.15   2.01  0.66  0.57 -0.06  2.06  0.74  0.02  0.09  0.08
   12 H    1     0.98   0.77  0.24 -0.01  0.03 -0.05
   13 H    1     0.90   0.78  0.16 -0.01  0.03 -0.06
   14 C    6     4.61   2.01  0.68  0.04 -0.03  1.91 -0.13  0.01  0.24 -0.11
   15 O    8     8.83   2.01  0.81  1.02  0.19  2.80  1.84  0.15  0.02 -0.00
   16 N    7     7.19   2.01  0.72  0.75 -0.14  2.47  1.25  0.11  0.04 -0.02
   17 H    1     0.87   0.73  0.16 -0.01  0.06 -0.07
   18 H    1     1.00   0.76  0.22 -0.01  0.05 -0.02
   19 C    6     4.39   2.01  0.68 -0.10  0.10  1.88  0.00  0.01  0.23 -0.41
   20 O    8     8.90   2.01  0.82  1.02  0.17  2.80  1.88  0.21  0.01 -0.01
   21 N    7     7.54   2.01  0.72  0.92 -0.17  2.45  1.45  0.05  0.05  0.06
   22 H    1     0.88   0.73  0.29 -0.05  0.06 -0.15
   23 C    6     6.06   2.01  0.66  0.25 -0.02  2.00  0.99  0.02  0.14  0.02
   24 H    1     1.22   0.79  0.40 -0.02  0.03  0.02
   25 C    6     6.13   2.01  0.66  0.22 -0.08  1.99  1.13  0.02  0.10  0.08
   26 H    1     1.13   0.77  0.39 -0.01  0.03 -0.05
   27 H    1     1.09   0.76  0.31  0.02  0.03 -0.03
   28 S   16    15.59   2.00  2.03  0.87  0.73  0.06  6.00  2.31  1.60  0.06  0.10 -0.16
   29 H    1     0.97   0.71  0.18  0.01  0.03  0.04
   30 C    6     4.34   2.01  0.68 -0.07 -0.00  1.89 -0.22  0.03  0.23 -0.21
   31 O    8     8.88   2.01  0.82  1.05  0.19  2.79  1.85  0.15  0.01  0.00
   32 N    7     7.26   2.01  0.72  0.81 -0.12  2.46  1.27  0.08  0.04 -0.01
   33 H    1     0.97   0.76  0.20 -0.01  0.05 -0.04
   34 H    1     0.99   0.75  0.21 -0.01  0.05 -0.01

       Multipole analysis of the density wrt the origin
       ------------------------------------------------

     L   x y z        total         open         nuclear
     -   - - -        -----         ----         -------
     0   0 0 0     -0.000000      0.000000    146.000000

     1   1 0 0      0.421767      0.000000      0.000000
     1   0 1 0     -0.026574      0.000000     -0.000000
     1   0 0 1      1.005110      0.000000      0.000000

     2   2 0 0    -78.922239      0.000000   1426.130243
     2   1 1 0     -9.019286      0.000000    -33.376440
     2   1 0 1     -1.011262      0.000000     -6.027048
     2   0 2 0    -92.185638      0.000000   4023.293510
     2   0 1 1     -6.344948      0.000000     -0.933773
     2   0 0 2    -88.953968      0.000000    426.763411


 Task  times  cpu:     4211.3s     wall:     4225.3s


                                NWChem Input Module
                                -------------------


 Summary of allocated global arrays
-----------------------------------
  No active global arrays


MA_summarize_allocated_blocks: starting scan ...
MA_summarize_allocated_blocks: scan completed: 0 heap blocks, 0 stack blocks
MA usage statistics:

	allocation statistics:
					      heap	     stack
					      ----	     -----
	current number of blocks	         0	         0
	maximum number of blocks	        16	        14
	current total bytes		         0	         0
	maximum total bytes		    136688	  33860808
	maximum total K-bytes		       137	     33861
	maximum total M-bytes		         1	        34


                                     CITATION
                                     --------
                Please cite the following reference when publishing
                           results obtained with NWChem:

          E. Apra, E. J. Bylaska, W. A. de Jong, N. Govind, K. Kowalski,
       T. P. Straatsma, M. Valiev, H. J. J. van Dam, Y. Alexeev, J. Anchell,
       V. Anisimov, F. W. Aquino, R. Atta-Fynn, J. Autschbach, N. P. Bauman,
     J. C. Becca, D. E. Bernholdt, K. Bhaskaran-Nair, S. Bogatko, P. Borowski,
         J. Boschen, J. Brabec, A. Bruner, E. Cauet, Y. Chen, G. N. Chuev,
      C. J. Cramer, J. Daily, M. J. O. Deegan, T. H. Dunning Jr., M. Dupuis,
   K. G. Dyall, G. I. Fann, S. A. Fischer, A. Fonari, H. Fruchtl, L. Gagliardi,
      J. Garza, N. Gawande, S. Ghosh, K. Glaesemann, A. W. Gotz, J. Hammond,
       V. Helms, E. D. Hermes, K. Hirao, S. Hirata, M. Jacquelin, L. Jensen,
   B. G. Johnson, H. Jonsson, R. A. Kendall, M. Klemm, R. Kobayashi, V. Konkov,
      S. Krishnamoorthy, M. Krishnan, Z. Lin, R. D. Lins, R. J. Littlefield,
      A. J. Logsdail, K. Lopata, W. Ma, A. V. Marenich, J. Martin del Campo,
   D. Mejia-Rodriguez, J. E. Moore, J. M. Mullin, T. Nakajima, D. R. Nascimento,
    J. A. Nichols, P. J. Nichols, J. Nieplocha, A. Otero-de-la-Roza, B. Palmer,
    A. Panyala, T. Pirojsirikul, B. Peng, R. Peverati, J. Pittner, L. Pollack,
   R. M. Richard, P. Sadayappan, G. C. Schatz, W. A. Shelton, D. W. Silverstein,
   D. M. A. Smith, T. A. Soares, D. Song, M. Swart, H. L. Taylor, G. S. Thomas,
            V. Tipparaju, D. G. Truhlar, K. Tsemekhman, T. Van Voorhis,
      A. Vazquez-Mayagoitia, P. Verma, O. Villa, A. Vishnu, K. D. Vogiatzis,
        D. Wang, J. H. Weare, M. J. Williamson, T. L. Windus, K. Wolinski,
        A. T. Wong, Q. Wu, C. Yang, Q. Yu, M. Zacharias, Z. Zhang, Y. Zhao,
                                and R. J. Harrison
                        "NWChem: Past, present, and future
                         J. Chem. Phys. 152, 184102 (2020)
                               doi:10.1063/5.0004997

                                      AUTHORS
                                      -------
  E. Apra, E. J. Bylaska, N. Govind, K. Kowalski, M. Valiev, D. Mejia-Rodriguez,
       A. Kunitsa, N. P. Bauman, A. Panyala, W. A. de Jong, T. P. Straatsma,
   H. J. J. van Dam, D. Wang, T. L. Windus, J. Hammond, J. Autschbach, A. Woods,
    K. Bhaskaran-Nair, J. Brabec, K. Lopata, S. A. Fischer, S. Krishnamoorthy,
     M. Jacquelin, W. Ma, M. Klemm, O. Villa, Y. Chen, V. Anisimov, F. Aquino,
     S. Hirata, M. T. Hackler, E. Hermes, L. Jensen, J. E. Moore, J. C. Becca,
      V. Konjkov, T. Risthaus, M. Malagoli, A. Marenich, A. Otero-de-la-Roza,
        J. Mullin, P. Nichols, R. Peverati, J. Pittner, Y. Zhao, P.-D. Fan,
        A. Fonari, M. J. Williamson, R. J. Harrison, J. R. Rehr, M. Dupuis,
     D. Silverstein, D. M. A. Smith, J. Nieplocha, V. Tipparaju, M. Krishnan,
     B. E. Van Kuiken, A. Vazquez-Mayagoitia, M. Swart, Q. Wu, T. Van Voorhis,
     A. A. Auer, M. Nooijen, L. D. Crosby, E. Brown, G. Cisneros, G. I. Fann,
   H. Fruchtl, J. Garza, K. Hirao, R. A. Kendall, J. A. Nichols, K. Tsemekhman,
    K. Wolinski, J. Anchell, D. E. Bernholdt, P. Borowski, T. Clark, D. Clerc,
   H. Dachsel, M. J. O. Deegan, K. Dyall, D. Elwood, E. Glendening, M. Gutowski,
   A. C. Hess, J. Jaffe, B. G. Johnson, J. Ju, R. Kobayashi, R. Kutteh, Z. Lin,
   R. Littlefield, X. Long, B. Meng, T. Nakajima, S. Niu, L. Pollack, M. Rosing,
   K. Glaesemann, G. Sandrone, M. Stave, H. Taylor, G. Thomas, J. H. van Lenthe,
                               A. T. Wong, Z. Zhang.

 Total times  cpu:     4211.4s     wall:     4225.8s
