export TMOUT=5400
export TMPDIR=/tmp
export PTMPDIR=/tmp/ptmp
 argument  1 = inputs/ASN_MET_3.nw



============================== echo of input deck ==============================
start ASN_MET_3
geometry
H          6.67000        3.55600        0.77700
C          6.71200        4.38000        1.48800
H          7.70300        4.83100        1.46800
H          6.49700        4.01000        2.48900
C          5.68200        5.41500        1.10600
O          4.97600        5.25000        0.12100
N          5.59900        6.49200        1.88200
H          6.21600        6.54100        2.68300
C          4.65200        7.60200        1.70300
H          3.67100        7.17500        1.48700
C          4.54600        8.36000        3.04300
H          3.93700        9.25600        2.92000
H          4.05100        7.72000        3.77200
C          5.90000        8.74400        3.61700
O          6.49000        8.01000        4.38900
N          6.46200        9.85500        3.21200
H          7.36900       10.07100        3.58000
H          6.05100       10.34500        2.42600
C          4.99100        8.52100        0.50000
O          5.24100        9.71400        0.67100
N          5.00300        7.97600       -0.72000
H          4.78400        6.98600       -0.79000
C          5.43000        8.67100       -1.94900
H          6.41600        9.09400       -1.75100
C          5.59000        7.64900       -3.09300
H          6.23800        8.09500       -3.84800
H          6.09500        6.75700       -2.71900
C          4.28300        7.24200       -3.79700
H          3.81000        8.13600       -4.20300
H          4.53600        6.60800       -4.64600
S          3.05600        6.36300       -2.78700
C          3.78800        4.70400       -2.76500
H          4.80700        4.75100       -2.38500
H          3.19600        4.05700       -2.11800
H          3.79700        4.29400       -3.77500
C          4.54000        9.85400       -2.38800
O          4.90900       10.59600       -3.29000
N          3.36500       10.05000       -1.80400
H          3.06800        9.43600       -1.06600
H          2.80600       10.82900       -2.10800
end

basis
 * library aug-cc-pvdz
end

echo

scf
 direct
end

task scf energy
================================================================================


                                         
                                         


             Northwest Computational Chemistry Package (NWChem) 7.2.0
             --------------------------------------------------------


                    Environmental Molecular Sciences Laboratory
                       Pacific Northwest National Laboratory
                                Richland, WA 99352

                              Copyright (c) 1994-2022
                       Pacific Northwest National Laboratory
                            Battelle Memorial Institute

             NWChem is an open-source computational chemistry package
                        distributed under the terms of the
                      Educational Community License (ECL) 2.0
             A copy of the license is included with this distribution
                              in the LICENSE.TXT file

                                  ACKNOWLEDGMENT
                                  --------------

            This software and its documentation were developed at the
            EMSL at Pacific Northwest National Laboratory, a multiprogram
            national laboratory, operated for the U.S. Department of Energy
            by Battelle under Contract Number DE-AC05-76RL01830. Support
            for this work was provided by the Department of Energy Office
            of Biological and Environmental Research, Office of Basic
            Energy Sciences, and the Office of Advanced Scientific Computing.


           Job information
           ---------------

    hostname        = nova21-speedy-12
    program         = /opt/rit/el9/20230413/app/linux-rhel9-x86_64_v3/gcc-11.2.1/nwchem-7.2.0-oxtctbuhfuzyfaoziquq6bki22grib3g/bin/nwchem
    date            = Thu Jul 10 07:29:43 2025

    compiled        = Wed_May_17_23:46:39_2023
    source          = /tmp/root/spack-stage/spack-stage-nwchem-7.2.0-oxtctbuhfuzyfaoziquq6bki22grib3g/spack-src
    nwchem branch   = 7.2.0
    nwchem revision = d0d141fd
    ga revision     = 5.8.0
    use scalapack   = T
    input           = inputs/ASN_MET_3.nw
    prefix          = ASN_MET_3.
    data base       = ./ASN_MET_3.db
    status          = startup
    nproc           =        8
    time left       =     -1s



           Memory information
           ------------------

    heap     =   26214400 doubles =    200.0 Mbytes
    stack    =   26214397 doubles =    200.0 Mbytes
    global   =   52428800 doubles =    400.0 Mbytes (distinct from heap & stack)
    total    =  104857597 doubles =    800.0 Mbytes
    verify   = yes
    hardfail = no 


           Directory information
           ---------------------

  0 permanent = .
  0 scratch   = .




                                NWChem Input Module
                                -------------------



 Scaling coordinates for geometry "geometry" by  1.889725989
 (inverse scale =  0.529177249)

 C1  symmetry detected

          ------
          auto-z
          ------
  no constraints, skipping    0.0000000000000000     
  no constraints, skipping    0.0000000000000000     


                             Geometry "geometry" -> ""
                             -------------------------

 Output coordinates in angstroms (scale by  1.889725989 to convert to a.u.)

  No.       Tag          Charge          X              Y              Z
 ---- ---------------- ---------- -------------- -------------- --------------
    1 H                    1.0000    -4.15059601     1.24611079     1.39475460
    2 C                    6.0000    -3.36312549     1.97754287     1.21823747
    3 H                    1.0000    -2.91504907     2.26960057     2.16682159
    4 H                    1.0000    -3.78172325     2.85299397     0.72479315
    5 C                    6.0000    -2.30692336     1.36226157     0.33284775
    6 O                    8.0000    -2.42033580     0.20728523    -0.05322643
    7 N                    7.0000    -1.26957679     2.13158203     0.01496080
    8 H                    1.0000    -1.26256707     3.07918721     0.37089099
    9 C                    6.0000    -0.14884562     1.73807882    -0.85110321
   10 H                    1.0000    -0.56124795     1.22467380    -1.72155459
   11 C                    6.0000     0.54192413     3.02393901    -1.35190330
   12 H                    1.0000     1.44499097     2.77219505    -1.90860901
   13 H                    1.0000    -0.13186094     3.54473084    -2.03076672
   14 C                    6.0000     0.89231052     3.98609896    -0.22863770
   15 O                    8.0000     0.11882763     4.86010045     0.11876067
   16 N                    7.0000     2.02016833     3.81722564     0.41448635
   17 H                    1.0000     2.21452378     4.44397825     1.17220406
   18 H                    1.0000     2.55004445     2.97025097     0.24512813
   19 C                    6.0000     0.82769618     0.73252644    -0.18633142
   20 O                    8.0000     2.00986089     1.02677147    -0.01055751
   21 N                    7.0000     0.34401169    -0.45580212     0.18715693
   22 H                    1.0000    -0.64053384    -0.63466411     0.00928199
   23 C                    6.0000     1.09782700    -1.47138105     0.94620693
   24 H                    1.0000     1.50711262    -0.97390475     1.82673610
   25 C                    6.0000     0.13345419    -2.56707581     1.44446196
   26 H                    1.0000     0.61425526    -3.07746464     2.27943417
   27 H                    1.0000    -0.77774913    -2.10573420     1.82843777
   28 C                    6.0000    -0.23359709    -3.64081225     0.40432860
   29 H                    1.0000     0.68108690    -4.12328329     0.06027061
   30 H                    1.0000    -0.82543968    -4.40873109     0.90110724
   31 S                   16.0000    -1.15758090    -3.07687233    -1.05392229
   32 C                    6.0000    -2.81809240    -2.92275326    -0.34150536
   33 H                    1.0000    -2.79350312    -2.26005284     0.52174056
   34 H                    1.0000    -3.49446173    -2.50894252    -1.08914645
   35 H                    1.0000    -3.17737925    -3.90480616    -0.03366437
   36 C                    6.0000     2.30420577    -2.09305867     0.20967642
   37 O                    8.0000     3.08889532    -2.81092840     0.81733945
   38 N                    7.0000     2.47489690    -1.86866325    -1.08670633
   39 H                    1.0000     1.82596105    -1.28021787    -1.57911195
   40 H                    1.0000     3.26994213    -2.28438868    -1.54147381

      Atomic Mass 
      ----------- 

      H                  1.007825
      C                 12.000000
      O                 15.994910
      N                 14.003070
      S                 31.972070


 Effective nuclear repulsion energy (a.u.)    1861.1379159741

            Nuclear Dipole moment (a.u.) 
            ----------------------------
        X                 Y               Z
 ---------------- ---------------- ----------------
     0.0000000000    -0.0000000000     0.0000000000



                                Z-matrix (autoz)
                                -------- 

 Units are Angstrom for bonds and degrees for angles

      Type          Name      I     J     K     L     M      Value
      ----------- --------  ----- ----- ----- ----- ----- ----------
    1 Stretch                  1     2                       1.08916
    2 Stretch                  2     3                       1.08898
    3 Stretch                  2     4                       1.08863
    4 Stretch                  2     5                       1.50932
    5 Stretch                  5     6                       1.22306
    6 Stretch                  5     7                       1.33004
    7 Stretch                  7     8                       1.01227
    8 Stretch                  7     9                       1.47002
    9 Stretch                  9    10                       1.09149
   10 Stretch                  9    11                       1.54318
   11 Stretch                  9    19                       1.55135
   12 Stretch                 11    12                       1.09033
   13 Stretch                 11    13                       1.08907
   14 Stretch                 11    14                       1.51995
   15 Stretch                 14    15                       1.21772
   16 Stretch                 14    16                       1.30927
   17 Stretch                 16    17                       1.00236
   18 Stretch                 16    18                       1.01332
   19 Stretch                 19    20                       1.23085
   20 Stretch                 19    21                       1.33625
   21 Stretch                 21    22                       1.01635
   22 Stretch                 21    23                       1.47506
   23 Stretch                 23    24                       1.09102
   24 Stretch                 23    25                       1.54234
   25 Stretch                 23    36                       1.54412
   26 Stretch                 25    26                       1.09034
   27 Stretch                 25    27                       1.09113
   28 Stretch                 25    28                       1.53932
   29 Stretch                 28    29                       1.08986
   30 Stretch                 28    30                       1.08939
   31 Stretch                 28    31                       1.81611
   32 Stretch                 31    32                       1.81345
   33 Stretch                 32    33                       1.08856
   34 Stretch                 32    34                       1.08981
   35 Stretch                 32    35                       1.09008
   36 Stretch                 36    37                       1.22488
   37 Stretch                 36    38                       1.32669
   38 Stretch                 38    39                       1.00491
   39 Stretch                 38    40                       1.00585
   40 Bend                     1     2     3               109.65931
   41 Bend                     1     2     4               109.60299
   42 Bend                     1     2     5               109.10255
   43 Bend                     2     5     6               120.34743
   44 Bend                     2     5     7               116.75649
   45 Bend                     3     2     4               109.71680
   46 Bend                     3     2     5               109.41320
   47 Bend                     4     2     5               109.33008
   48 Bend                     5     7     8               117.57009
   49 Bend                     5     7     9               125.49249
   50 Bend                     6     5     7               122.89476
   51 Bend                     7     9    10               107.92047
   52 Bend                     7     9    11               108.02383
   53 Bend                     7     9    19               113.63819
   54 Bend                     8     7     9               116.90175
   55 Bend                     9    11    12               110.12421
   56 Bend                     9    11    13               108.89375
   57 Bend                     9    11    14               113.00602
   58 Bend                     9    19    20               120.71859
   59 Bend                     9    19    21               117.92678
   60 Bend                    10     9    11               107.59358
   61 Bend                    10     9    19               105.94342
   62 Bend                    11     9    19               113.41500
   63 Bend                    11    14    15               121.24815
   64 Bend                    11    14    16               118.68177
   65 Bend                    12    11    13               107.73188
   66 Bend                    12    11    14               109.42381
   67 Bend                    13    11    14               107.49193
   68 Bend                    14    16    17               117.23887
   69 Bend                    14    16    18               118.43548
   70 Bend                    15    14    16               119.97477
   71 Bend                    17    16    18               123.20121
   72 Bend                    19    21    22               117.27304
   73 Bend                    19    21    23               124.82921
   74 Bend                    20    19    21               121.35461
   75 Bend                    21    23    24               107.04264
   76 Bend                    21    23    25               109.62243
   77 Bend                    21    23    36               115.53135
   78 Bend                    22    21    23               117.64199
   79 Bend                    23    25    26               107.71079
   80 Bend                    23    25    27               109.60137
   81 Bend                    23    25    28               115.23577
   82 Bend                    23    36    37               119.98857
   83 Bend                    23    36    38               119.90186
   84 Bend                    24    23    25               107.32342
   85 Bend                    24    23    36               105.98921
   86 Bend                    25    23    36               110.89011
   87 Bend                    25    28    29               108.78297
   88 Bend                    25    28    30               108.24685
   89 Bend                    25    28    31               116.56914
   90 Bend                    26    25    27               107.25833
   91 Bend                    26    25    28               107.22235
   92 Bend                    27    25    28               109.48641
   93 Bend                    28    31    32               100.18412
   94 Bend                    29    28    30               106.72986
   95 Bend                    29    28    31               108.11792
   96 Bend                    30    28    31               107.97745
   97 Bend                    31    32    33               110.03489
   98 Bend                    31    32    34               109.33270
   99 Bend                    31    32    35               109.64415
  100 Bend                    33    32    34               109.08008
  101 Bend                    33    32    35               109.38713
  102 Bend                    34    32    35               109.34513
  103 Bend                    36    38    39               119.65428
  104 Bend                    36    38    40               118.26714
  105 Bend                    37    36    38               120.09758
  106 Bend                    39    38    40               122.06662
  107 Torsion                  1     2     5     6          -0.65906
  108 Torsion                  1     2     5     7         179.74832
  109 Torsion                  2     5     7     8          -1.05577
  110 Torsion                  2     5     7     9        -178.80835
  111 Torsion                  3     2     5     6         119.31089
  112 Torsion                  3     2     5     7         -60.28173
  113 Torsion                  4     2     5     6        -120.51034
  114 Torsion                  4     2     5     7          59.89704
  115 Torsion                  5     7     9    10          44.26157
  116 Torsion                  5     7     9    11         160.32027
  117 Torsion                  5     7     9    19         -72.91125
  118 Torsion                  6     5     7     8         179.36292
  119 Torsion                  6     5     7     9           1.61035
  120 Torsion                  7     9    11    12         173.77758
  121 Torsion                  7     9    11    13         -68.30171
  122 Torsion                  7     9    11    14          51.06913
  123 Torsion                  7     9    19    20        -118.79033
  124 Torsion                  7     9    19    21          61.16521
  125 Torsion                  8     7     9    10        -133.50446
  126 Torsion                  8     7     9    11         -17.44576
  127 Torsion                  8     7     9    19         109.32272
  128 Torsion                  9    11    14    15         -91.34022
  129 Torsion                  9    11    14    16          85.10855
  130 Torsion                  9    19    21    22           0.26576
  131 Torsion                  9    19    21    23        -173.76969
  132 Torsion                 10     9    11    12         -69.95065
  133 Torsion                 10     9    11    13          47.97007
  134 Torsion                 10     9    11    14         167.34091
  135 Torsion                 10     9    19    20         122.89255
  136 Torsion                 10     9    19    21         -57.15191
  137 Torsion                 11     9    19    20           5.09962
  138 Torsion                 11     9    19    21        -174.94484
  139 Torsion                 11    14    16    17        -177.89414
  140 Torsion                 11    14    16    18          -9.61960
  141 Torsion                 12    11     9    19          46.87936
  142 Torsion                 12    11    14    15         145.56216
  143 Torsion                 12    11    14    16         -37.98907
  144 Torsion                 13    11     9    19         164.80008
  145 Torsion                 13    11    14    15          28.83595
  146 Torsion                 13    11    14    16        -154.71528
  147 Torsion                 14    11     9    19         -75.82908
  148 Torsion                 15    14    16    17          -1.39891
  149 Torsion                 15    14    16    18         166.87562
  150 Torsion                 19    21    23    24          52.00760
  151 Torsion                 19    21    23    25         168.10727
  152 Torsion                 19    21    23    36         -65.74837
  153 Torsion                 20    19    21    22        -179.77899
  154 Torsion                 20    19    21    23           6.18555
  155 Torsion                 21    23    25    26        -159.33383
  156 Torsion                 21    23    25    27         -42.95379
  157 Torsion                 21    23    25    28          81.05427
  158 Torsion                 21    23    36    37         170.46900
  159 Torsion                 21    23    36    38         -10.78928
  160 Torsion                 22    21    23    24        -122.00780
  161 Torsion                 22    21    23    25          -5.90812
  162 Torsion                 22    21    23    36         120.23623
  163 Torsion                 23    25    28    29          58.33742
  164 Torsion                 23    25    28    30         173.94954
  165 Torsion                 23    25    28    31         -64.16449
  166 Torsion                 23    36    38    39           1.12720
  167 Torsion                 23    36    38    40         179.89486
  168 Torsion                 24    23    25    26         -43.41209
  169 Torsion                 24    23    25    27          72.96796
  170 Torsion                 24    23    25    28        -163.02399
  171 Torsion                 24    23    36    37          52.12676
  172 Torsion                 24    23    36    38        -129.13152
  173 Torsion                 25    23    36    37         -64.03484
  174 Torsion                 25    23    36    38         114.70688
  175 Torsion                 25    28    31    32         -77.83670
  176 Torsion                 26    25    23    36          71.92185
  177 Torsion                 26    25    28    29         -61.54342
  178 Torsion                 26    25    28    30          54.06869
  179 Torsion                 26    25    28    31         175.95466
  180 Torsion                 27    25    23    36        -171.69811
  181 Torsion                 27    25    28    29        -177.59411
  182 Torsion                 27    25    28    30         -61.98200
  183 Torsion                 27    25    28    31          59.90398
  184 Torsion                 28    25    23    36         -47.69006
  185 Torsion                 28    31    32    33          55.79775
  186 Torsion                 28    31    32    34         175.57792
  187 Torsion                 28    31    32    35         -64.55571
  188 Torsion                 29    28    31    32         159.31543
  189 Torsion                 30    28    31    32          44.19052
  190 Torsion                 37    36    38    39         179.86754
  191 Torsion                 37    36    38    40          -1.36480


            XYZ format geometry
            -------------------
    40
 geometry
 H                    -4.15059601     1.24611079     1.39475460
 C                    -3.36312549     1.97754287     1.21823747
 H                    -2.91504907     2.26960057     2.16682159
 H                    -3.78172325     2.85299397     0.72479315
 C                    -2.30692336     1.36226157     0.33284775
 O                    -2.42033580     0.20728523    -0.05322643
 N                    -1.26957679     2.13158203     0.01496080
 H                    -1.26256707     3.07918721     0.37089099
 C                    -0.14884562     1.73807882    -0.85110321
 H                    -0.56124795     1.22467380    -1.72155459
 C                     0.54192413     3.02393901    -1.35190330
 H                     1.44499097     2.77219505    -1.90860901
 H                    -0.13186094     3.54473084    -2.03076672
 C                     0.89231052     3.98609896    -0.22863770
 O                     0.11882763     4.86010045     0.11876067
 N                     2.02016833     3.81722564     0.41448635
 H                     2.21452378     4.44397825     1.17220406
 H                     2.55004445     2.97025097     0.24512813
 C                     0.82769618     0.73252644    -0.18633142
 O                     2.00986089     1.02677147    -0.01055751
 N                     0.34401169    -0.45580212     0.18715693
 H                    -0.64053384    -0.63466411     0.00928199
 C                     1.09782700    -1.47138105     0.94620693
 H                     1.50711262    -0.97390475     1.82673610
 C                     0.13345419    -2.56707581     1.44446196
 H                     0.61425526    -3.07746464     2.27943417
 H                    -0.77774913    -2.10573420     1.82843777
 C                    -0.23359709    -3.64081225     0.40432860
 H                     0.68108690    -4.12328329     0.06027061
 H                    -0.82543968    -4.40873109     0.90110724
 S                    -1.15758090    -3.07687233    -1.05392229
 C                    -2.81809240    -2.92275326    -0.34150536
 H                    -2.79350312    -2.26005284     0.52174056
 H                    -3.49446173    -2.50894252    -1.08914645
 H                    -3.17737925    -3.90480616    -0.03366437
 C                     2.30420577    -2.09305867     0.20967642
 O                     3.08889532    -2.81092840     0.81733945
 N                     2.47489690    -1.86866325    -1.08670633
 H                     1.82596105    -1.28021787    -1.57911195
 H                     3.26994213    -2.28438868    -1.54147381

 ==============================================================================
                                internuclear distances
 ------------------------------------------------------------------------------
       center one      |      center two      | atomic units |  angstroms
 ------------------------------------------------------------------------------
    2 C                |   1 H                |     2.05821  |     1.08916
    3 H                |   2 C                |     2.05788  |     1.08898
    4 H                |   2 C                |     2.05722  |     1.08863
    5 C                |   2 C                |     2.85220  |     1.50932
    6 O                |   5 C                |     2.31126  |     1.22306
    7 N                |   5 C                |     2.51340  |     1.33004
    8 H                |   7 N                |     1.91291  |     1.01227
    9 C                |   7 N                |     2.77793  |     1.47002
   10 H                |   9 C                |     2.06261  |     1.09149
   11 C                |   9 C                |     2.91618  |     1.54318
   12 H                |  11 C                |     2.06043  |     1.09033
   13 H                |  11 C                |     2.05804  |     1.08907
   14 C                |  11 C                |     2.87229  |     1.51995
   15 O                |  14 C                |     2.30116  |     1.21772
   16 N                |  14 C                |     2.47416  |     1.30927
   17 H                |  16 N                |     1.89419  |     1.00236
   18 H                |  16 N                |     1.91490  |     1.01332
   19 C                |   9 C                |     2.93163  |     1.55135
   20 O                |  19 C                |     2.32597  |     1.23085
   21 N                |  19 C                |     2.52515  |     1.33625
   22 H                |  21 N                |     1.92062  |     1.01635
   23 C                |  21 N                |     2.78745  |     1.47506
   24 H                |  23 C                |     2.06173  |     1.09102
   25 C                |  23 C                |     2.91460  |     1.54234
   26 H                |  25 C                |     2.06045  |     1.09034
   27 H                |  25 C                |     2.06194  |     1.09113
   28 C                |  25 C                |     2.90890  |     1.53932
   29 H                |  28 C                |     2.05954  |     1.08986
   30 H                |  28 C                |     2.05864  |     1.08939
   31 S                |  28 C                |     3.43196  |     1.81611
   32 C                |  31 S                |     3.42692  |     1.81345
   33 H                |  32 C                |     2.05709  |     1.08856
   34 H                |  32 C                |     2.05944  |     1.08981
   35 H                |  32 C                |     2.05996  |     1.09008
   36 C                |  23 C                |     2.91797  |     1.54412
   37 O                |  36 C                |     2.31469  |     1.22488
   38 N                |  36 C                |     2.50707  |     1.32669
   39 H                |  38 N                |     1.89901  |     1.00491
   40 H                |  38 N                |     1.90078  |     1.00585
 ------------------------------------------------------------------------------
                         number of included internuclear distances:         39
 ==============================================================================



 ==============================================================================
                                 internuclear angles
 ------------------------------------------------------------------------------
        center 1       |       center 2       |       center 3       |  degrees
 ------------------------------------------------------------------------------
    1 H                |   2 C                |   3 H                |   109.66
    1 H                |   2 C                |   4 H                |   109.60
    1 H                |   2 C                |   5 C                |   109.10
    3 H                |   2 C                |   4 H                |   109.72
    3 H                |   2 C                |   5 C                |   109.41
    4 H                |   2 C                |   5 C                |   109.33
    2 C                |   5 C                |   6 O                |   120.35
    2 C                |   5 C                |   7 N                |   116.76
    6 O                |   5 C                |   7 N                |   122.89
    5 C                |   7 N                |   8 H                |   117.57
    5 C                |   7 N                |   9 C                |   125.49
    8 H                |   7 N                |   9 C                |   116.90
    7 N                |   9 C                |  10 H                |   107.92
    7 N                |   9 C                |  11 C                |   108.02
    7 N                |   9 C                |  19 C                |   113.64
   10 H                |   9 C                |  11 C                |   107.59
   10 H                |   9 C                |  19 C                |   105.94
   11 C                |   9 C                |  19 C                |   113.41
    9 C                |  11 C                |  12 H                |   110.12
    9 C                |  11 C                |  13 H                |   108.89
    9 C                |  11 C                |  14 C                |   113.01
   12 H                |  11 C                |  13 H                |   107.73
   12 H                |  11 C                |  14 C                |   109.42
   13 H                |  11 C                |  14 C                |   107.49
   11 C                |  14 C                |  15 O                |   121.25
   11 C                |  14 C                |  16 N                |   118.68
   15 O                |  14 C                |  16 N                |   119.97
   14 C                |  16 N                |  17 H                |   117.24
   14 C                |  16 N                |  18 H                |   118.44
   17 H                |  16 N                |  18 H                |   123.20
    9 C                |  19 C                |  20 O                |   120.72
    9 C                |  19 C                |  21 N                |   117.93
   20 O                |  19 C                |  21 N                |   121.35
   19 C                |  21 N                |  22 H                |   117.27
   19 C                |  21 N                |  23 C                |   124.83
   22 H                |  21 N                |  23 C                |   117.64
   21 N                |  23 C                |  24 H                |   107.04
   21 N                |  23 C                |  25 C                |   109.62
   21 N                |  23 C                |  36 C                |   115.53
   24 H                |  23 C                |  25 C                |   107.32
   24 H                |  23 C                |  36 C                |   105.99
   25 C                |  23 C                |  36 C                |   110.89
   23 C                |  25 C                |  26 H                |   107.71
   23 C                |  25 C                |  27 H                |   109.60
   23 C                |  25 C                |  28 C                |   115.24
   26 H                |  25 C                |  27 H                |   107.26
   26 H                |  25 C                |  28 C                |   107.22
   27 H                |  25 C                |  28 C                |   109.49
   25 C                |  28 C                |  29 H                |   108.78
   25 C                |  28 C                |  30 H                |   108.25
   25 C                |  28 C                |  31 S                |   116.57
   29 H                |  28 C                |  30 H                |   106.73
   29 H                |  28 C                |  31 S                |   108.12
   30 H                |  28 C                |  31 S                |   107.98
   28 C                |  31 S                |  32 C                |   100.18
   31 S                |  32 C                |  33 H                |   110.03
   31 S                |  32 C                |  34 H                |   109.33
   31 S                |  32 C                |  35 H                |   109.64
   33 H                |  32 C                |  34 H                |   109.08
   33 H                |  32 C                |  35 H                |   109.39
   34 H                |  32 C                |  35 H                |   109.35
   23 C                |  36 C                |  37 O                |   119.99
   23 C                |  36 C                |  38 N                |   119.90
   37 O                |  36 C                |  38 N                |   120.10
   36 C                |  38 N                |  39 H                |   119.65
   36 C                |  38 N                |  40 H                |   118.27
   39 H                |  38 N                |  40 H                |   122.07
 ------------------------------------------------------------------------------
                            number of included internuclear angles:         67
 ==============================================================================



  library name resolved from: environment
  library file name is: </opt/rit/el9/20230413/app/linux-rhel9-x86_64_v3/gcc-11.2.1/nwchem-7.2.0-oxtctbuhfuzyfaoziquq6bki22grib3g/share/nwchem/libraries/>
  


 Summary of "ao basis" -> "" (cartesian)
 ------------------------------------------------------------------------------
       Tag                 Description            Shells   Functions and Types
 ---------------- ------------------------------  ------  ---------------------
 *                        aug-cc-pvdz                 on all atoms 


                      Basis "ao basis" -> "ao basis" (cartesian)
                      -----
  H (Hydrogen)
  ------------
            Exponent  Coefficients 
       -------------- ---------------------------------------------------------
  1 S  1.30100000E+01  0.019685
  1 S  1.96200000E+00  0.137977
  1 S  4.44600000E-01  0.478148

  2 S  1.22000000E-01  1.000000

  3 S  2.97400000E-02  1.000000

  4 P  7.27000000E-01  1.000000

  5 P  1.41000000E-01  1.000000

  C (Carbon)
  ----------
            Exponent  Coefficients 
       -------------- ---------------------------------------------------------
  1 S  6.66500000E+03  0.000692
  1 S  1.00000000E+03  0.005329
  1 S  2.28000000E+02  0.027077
  1 S  6.47100000E+01  0.101718
  1 S  2.10600000E+01  0.274740
  1 S  7.49500000E+00  0.448564
  1 S  2.79700000E+00  0.285074
  1 S  5.21500000E-01  0.015204

  2 S  6.66500000E+03 -0.000146
  2 S  1.00000000E+03 -0.001154
  2 S  2.28000000E+02 -0.005725
  2 S  6.47100000E+01 -0.023312
  2 S  2.10600000E+01 -0.063955
  2 S  7.49500000E+00 -0.149981
  2 S  2.79700000E+00 -0.127262
  2 S  5.21500000E-01  0.544529

  3 S  1.59600000E-01  1.000000

  4 S  4.69000000E-02  1.000000

  5 P  9.43900000E+00  0.038109
  5 P  2.00200000E+00  0.209480
  5 P  5.45600000E-01  0.508557

  6 P  1.51700000E-01  1.000000

  7 P  4.04100000E-02  1.000000

  8 D  5.50000000E-01  1.000000

  9 D  1.51000000E-01  1.000000

  O (Oxygen)
  ----------
            Exponent  Coefficients 
       -------------- ---------------------------------------------------------
  1 S  1.17200000E+04  0.000710
  1 S  1.75900000E+03  0.005470
  1 S  4.00800000E+02  0.027837
  1 S  1.13700000E+02  0.104800
  1 S  3.70300000E+01  0.283062
  1 S  1.32700000E+01  0.448719
  1 S  5.02500000E+00  0.270952
  1 S  1.01300000E+00  0.015458

  2 S  1.17200000E+04 -0.000160
  2 S  1.75900000E+03 -0.001263
  2 S  4.00800000E+02 -0.006267
  2 S  1.13700000E+02 -0.025716
  2 S  3.70300000E+01 -0.070924
  2 S  1.32700000E+01 -0.165411
  2 S  5.02500000E+00 -0.116955
  2 S  1.01300000E+00  0.557368

  3 S  3.02300000E-01  1.000000

  4 S  7.89600000E-02  1.000000

  5 P  1.77000000E+01  0.043018
  5 P  3.85400000E+00  0.228913
  5 P  1.04600000E+00  0.508728

  6 P  2.75300000E-01  1.000000

  7 P  6.85600000E-02  1.000000

  8 D  1.18500000E+00  1.000000

  9 D  3.32000000E-01  1.000000

  N (Nitrogen)
  ------------
            Exponent  Coefficients 
       -------------- ---------------------------------------------------------
  1 S  9.04600000E+03  0.000700
  1 S  1.35700000E+03  0.005389
  1 S  3.09300000E+02  0.027406
  1 S  8.77300000E+01  0.103207
  1 S  2.85600000E+01  0.278723
  1 S  1.02100000E+01  0.448540
  1 S  3.83800000E+00  0.278238
  1 S  7.46600000E-01  0.015440

  2 S  9.04600000E+03 -0.000153
  2 S  1.35700000E+03 -0.001208
  2 S  3.09300000E+02 -0.005992
  2 S  8.77300000E+01 -0.024544
  2 S  2.85600000E+01 -0.067459
  2 S  1.02100000E+01 -0.158078
  2 S  3.83800000E+00 -0.121831
  2 S  7.46600000E-01  0.549003

  3 S  2.24800000E-01  1.000000

  4 S  6.12400000E-02  1.000000

  5 P  1.35500000E+01  0.039919
  5 P  2.91700000E+00  0.217169
  5 P  7.97300000E-01  0.510319

  6 P  2.18500000E-01  1.000000

  7 P  5.61100000E-02  1.000000

  8 D  8.17000000E-01  1.000000

  9 D  2.30000000E-01  1.000000

  S (Sulphur)
  -----------
            Exponent  Coefficients 
       -------------- ---------------------------------------------------------
  1 S  1.10800000E+05  0.000248
  1 S  1.66100000E+04  0.001920
  1 S  3.78100000E+03  0.009962
  1 S  1.07100000E+03  0.040298
  1 S  3.49800000E+02  0.128604
  1 S  1.26300000E+02  0.303480
  1 S  4.92600000E+01  0.421432
  1 S  2.01600000E+01  0.230781
  1 S  5.72000000E+00  0.017897
  1 S  2.18200000E+00 -0.002975
  1 S  4.32700000E-01  0.000850

  2 S  1.10800000E+05 -0.000069
  2 S  1.66100000E+04 -0.000528
  2 S  3.78100000E+03 -0.002797
  2 S  1.07100000E+03 -0.011265
  2 S  3.49800000E+02 -0.038883
  2 S  1.26300000E+02 -0.099503
  2 S  4.92600000E+01 -0.199740
  2 S  2.01600000E+01 -0.123360
  2 S  5.72000000E+00  0.513194
  2 S  2.18200000E+00  0.607120
  2 S  4.32700000E-01  0.039675

  3 S  1.10800000E+05  0.000020
  3 S  1.66100000E+04  0.000153
  3 S  3.78100000E+03  0.000810
  3 S  1.07100000E+03  0.003290
  3 S  3.49800000E+02  0.011297
  3 S  1.26300000E+02  0.029639
  3 S  4.92600000E+01  0.059985
  3 S  2.01600000E+01  0.041325
  3 S  5.72000000E+00 -0.207474
  3 S  2.18200000E+00 -0.392889
  3 S  4.32700000E-01  0.632840

  4 S  1.57000000E-01  1.000000

  5 S  5.07000000E-02  1.000000

  6 P  3.99700000E+02  0.004475
  6 P  9.41900000E+01  0.034171
  6 P  2.97500000E+01  0.144250
  6 P  1.07700000E+01  0.353928
  6 P  4.11900000E+00  0.459085
  6 P  1.62500000E+00  0.206383
  6 P  4.72600000E-01  0.010214

  7 P  3.99700000E+02 -0.001163
  7 P  9.41900000E+01 -0.008657
  7 P  2.97500000E+01 -0.039089
  7 P  1.07700000E+01 -0.093463
  7 P  4.11900000E+00 -0.147994
  7 P  1.62500000E+00  0.030190
  7 P  4.72600000E-01  0.561573

  8 P  1.40700000E-01  1.000000

  9 P  3.99000000E-02  1.000000

 10 D  4.79000000E-01  1.000000

 11 D  1.52000000E-01  1.000000



 Summary of "ao basis" -> "ao basis" (cartesian)
 ------------------------------------------------------------------------------
       Tag                 Description            Shells   Functions and Types
 ---------------- ------------------------------  ------  ---------------------
 H                        aug-cc-pvdz                5        9   3s2p
 C                        aug-cc-pvdz                9       25   4s3p2d
 O                        aug-cc-pvdz                9       25   4s3p2d
 N                        aug-cc-pvdz                9       25   4s3p2d
 S                        aug-cc-pvdz               11       29   5s4p2d


                                 NWChem SCF Module
                                 -----------------



  ao basis        = "ao basis"
  functions       =   684
  atoms           =    40
  closed shells   =    81
  open shells     =     0
  charge          =   0.00
  wavefunction    = RHF 
  input vectors   = atomic
  output vectors  = ./ASN_MET_3.movecs
  use symmetry    = F
  symmetry adapt  = F


 Summary of "ao basis" -> "ao basis" (cartesian)
 ------------------------------------------------------------------------------
       Tag                 Description            Shells   Functions and Types
 ---------------- ------------------------------  ------  ---------------------
 H                        aug-cc-pvdz                5        9   3s2p
 C                        aug-cc-pvdz                9       25   4s3p2d
 O                        aug-cc-pvdz                9       25   4s3p2d
 N                        aug-cc-pvdz                9       25   4s3p2d
 S                        aug-cc-pvdz               11       29   5s4p2d



 Forming initial guess at       1.0s


 !! The overlap matrix has   5 vectors deemed linearly dependent with
    eigenvalues:
 1.91D-06 3.19D-06 5.79D-06 7.10D-06 8.24D-06


      Superposition of Atomic Density Guess
      -------------------------------------

 Sum of atomic energies:       -1338.08087253

      Non-variational initial energy
      ------------------------------

 Total energy =   -1350.775885
 1-e energy   =   -5530.565402
 2-e energy   =    2318.651601
 HOMO         =      -0.260024
 LUMO         =       0.007024


 Starting SCF solution at     374.8s



 ----------------------------------------------
         Quadratically convergent ROHF

 Convergence threshold     :          1.000E-04
 Maximum no. of iterations :           30
 Final Fock-matrix accuracy:          1.000E-10
 ----------------------------------------------


              iter       energy          gnorm     gmax       time
             ----- ------------------- --------- --------- --------
                 1    -1342.7382314921  2.69D+00  1.30D-01    768.1
                 2    -1343.1237225208  9.03D-01  4.25D-02   1576.3
                 3    -1343.1959655460  7.01D-02  3.88D-03   2708.4
                 4    -1343.1967143072  4.47D-03  2.85D-04   4238.7
                 5    -1343.1967180915  1.05D-05  6.10D-07   6878.6


       Final RHF  results 
       ------------------ 

         Total SCF energy =  -1343.196718091503
      One-electron energy =  -5544.555788955099
      Two-electron energy =   2340.221154889460
 Nuclear repulsion energy =   1861.137915974136

        Time for solution =   6505.9s


             Final eigenvalues
             -----------------

              1      
    1  -91.9477
    2  -20.5489
    3  -20.5483
    4  -20.5300
    5  -20.5198
    6  -15.6187
    7  -15.6030
    8  -15.5910
    9  -15.5881
   10  -11.3776
   11  -11.3771
   12  -11.3604
   13  -11.3564
   14  -11.3272
   15  -11.3021
   16  -11.2704
   17  -11.2678
   18  -11.2574
   19  -11.2554
   20  -11.2549
   21   -8.9487
   22   -6.6310
   23   -6.6296
   24   -6.6277
   25   -1.4169
   26   -1.4072
   27   -1.4006
   28   -1.3824
   29   -1.2696
   30   -1.2531
   31   -1.2265
   32   -1.2147
   33   -1.1019
   34   -1.0866
   35   -1.0370
   36   -1.0161
   37   -0.9706
   38   -0.9317
   39   -0.8811
   40   -0.8403
   41   -0.8212
   42   -0.8059
   43   -0.7917
   44   -0.7789
   45   -0.7501
   46   -0.7402
   47   -0.7327
   48   -0.7096
   49   -0.6946
   50   -0.6865
   51   -0.6629
   52   -0.6585
   53   -0.6348
   54   -0.6313
   55   -0.6175
   56   -0.6145
   57   -0.6104
   58   -0.5968
   59   -0.5933
   60   -0.5854
   61   -0.5829
   62   -0.5781
   63   -0.5664
   64   -0.5619
   65   -0.5519
   66   -0.5470
   67   -0.5430
   68   -0.5362
   69   -0.5276
   70   -0.5043
   71   -0.4847
   72   -0.4667
   73   -0.4475
   74   -0.4427
   75   -0.4309
   76   -0.4266
   77   -0.4161
   78   -0.4122
   79   -0.4057
   80   -0.3955
   81   -0.3365
   82    0.0264
   83    0.0323
   84    0.0374
   85    0.0394
   86    0.0474
   87    0.0498
   88    0.0526
   89    0.0550
   90    0.0608
   91    0.0672

                       ROHF Final Molecular Orbital Analysis
                       -------------------------------------

 Vector   25  Occ=2.000000D+00  E=-1.416856D+00
              MO Center= -1.2D+00,  8.8D-01,  2.9D-02, r^2= 3.9D+00
   Bfn.  Coefficient  Atom+Function         Bfn.  Coefficient  Atom+Function  
  ----- ------------  ---------------      ----- ------------  ---------------
    80      0.297782   6 O  s                79      0.292830   6 O  s         
    54      0.207343   5 C  s               334      0.174346  20 O  s         
   333      0.168105  20 O  s         

 Vector   26  Occ=2.000000D+00  E=-1.407171D+00
              MO Center=  4.1D-01,  9.2D-01, -1.0D-03, r^2= 4.7D+00
   Bfn.  Coefficient  Atom+Function         Bfn.  Coefficient  Atom+Function  
  ----- ------------  ---------------      ----- ------------  ---------------
   334      0.312944  20 O  s               333      0.291419  20 O  s         
    80     -0.198658   6 O  s                79     -0.195705   6 O  s         
   308      0.192677  19 C  s         

 Vector   27  Occ=2.000000D+00  E=-1.400583D+00
              MO Center=  6.1D-01,  4.2D+00,  3.9D-02, r^2= 2.1D+00
   Bfn.  Coefficient  Atom+Function         Bfn.  Coefficient  Atom+Function  
  ----- ------------  ---------------      ----- ------------  ---------------
   241      0.358114  15 O  s               240      0.337906  15 O  s         
   215      0.238173  14 C  s         

 Vector   28  Occ=2.000000D+00  E=-1.382406D+00
              MO Center=  2.8D+00, -2.4D+00,  4.3D-01, r^2= 1.2D+00
   Bfn.  Coefficient  Atom+Function         Bfn.  Coefficient  Atom+Function  
  ----- ------------  ---------------      ----- ------------  ---------------
   619      0.380149  37 O  s               618      0.347422  37 O  s         
   593      0.245880  36 C  s               595     -0.175223  36 C  s         

 Vector   29  Occ=2.000000D+00  E=-1.269622D+00
              MO Center= -1.2D+00,  1.7D+00, -4.7D-02, r^2= 2.3D+00
   Bfn.  Coefficient  Atom+Function         Bfn.  Coefficient  Atom+Function  
  ----- ------------  ---------------      ----- ------------  ---------------
   105      0.403623   7 N  s               104      0.329728   7 N  s         
    80     -0.212475   6 O  s                79     -0.176061   6 O  s         
    58      0.161317   5 C  py        

 Vector   30  Occ=2.000000D+00  E=-1.253114D+00
              MO Center=  6.4D-01, -2.8D-01,  1.8D-01, r^2= 3.0D+00
   Bfn.  Coefficient  Atom+Function         Bfn.  Coefficient  Atom+Function  
  ----- ------------  ---------------      ----- ------------  ---------------
   359      0.395631  21 N  s               358      0.322845  21 N  s         
   393     -0.207150  23 C  s               334     -0.184505  20 O  s         

 Vector   31  Occ=2.000000D+00  E=-1.226510D+00
              MO Center=  1.6D+00,  3.9D+00,  2.6D-01, r^2= 1.6D+00
   Bfn.  Coefficient  Atom+Function         Bfn.  Coefficient  Atom+Function  
  ----- ------------  ---------------      ----- ------------  ---------------
   265      0.363915  16 N  s               266      0.324911  16 N  s         
   241     -0.216863  15 O  s               218      0.195826  14 C  px        
   240     -0.185988  15 O  s               298      0.158175  18 H  s         
   289      0.153960  17 H  s         

 Vector   32  Occ=2.000000D+00  E=-1.214723D+00
              MO Center=  2.3D+00, -1.8D+00, -6.4D-01, r^2= 2.0D+00
   Bfn.  Coefficient  Atom+Function         Bfn.  Coefficient  Atom+Function  
  ----- ------------  ---------------      ----- ------------  ---------------
   644      0.367158  38 N  s               643      0.362220  38 N  s         
   619     -0.200458  37 O  s               598     -0.187311  36 C  pz        
   393     -0.169835  23 C  s               618     -0.169465  37 O  s         
   667      0.165983  39 H  s               359     -0.161379  21 N  s         
   676      0.156157  40 H  s         

 Vector   33  Occ=2.000000D+00  E=-1.101890D+00
              MO Center= -1.6D-01, -1.7D+00,  3.5D-01, r^2= 6.8D+00
   Bfn.  Coefficient  Atom+Function         Bfn.  Coefficient  Atom+Function  
  ----- ------------  ---------------      ----- ------------  ---------------
   426      0.203725  25 C  s               469      0.196311  28 C  s         
   471     -0.188891  28 C  s               595      0.180993  36 C  s         
   513      0.152449  31 S  s         

 Vector   34  Occ=2.000000D+00  E=-1.086568D+00
              MO Center= -4.3D-01,  1.2D+00, -4.1D-01, r^2= 8.6D+00
   Bfn.  Coefficient  Atom+Function         Bfn.  Coefficient  Atom+Function  
  ----- ------------  ---------------      ----- ------------  ---------------
   172      0.218267  11 C  s               138      0.205061   9 C  s         
   174     -0.161678  11 C  s         

 Vector   35  Occ=2.000000D+00  E=-1.036993D+00
              MO Center= -6.3D-01, -2.1D+00,  5.6D-03, r^2= 6.7D+00
   Bfn.  Coefficient  Atom+Function         Bfn.  Coefficient  Atom+Function  
  ----- ------------  ---------------      ----- ------------  ---------------
   513      0.229465  31 S  s               541      0.195218  32 C  s         
   392     -0.190668  23 C  s         

 Vector   36  Occ=2.000000D+00  E=-1.016095D+00
              MO Center= -2.4D+00,  2.1D+00,  6.1D-01, r^2= 4.9D+00
   Bfn.  Coefficient  Atom+Function         Bfn.  Coefficient  Atom+Function  
  ----- ------------  ---------------      ----- ------------  ---------------
    11      0.320961   2 C  s               173      0.214658  11 C  s         
   172      0.155433  11 C  s         

 Vector   37  Occ=2.000000D+00  E=-9.705946D-01
              MO Center= -5.4D-01, -1.6D+00,  1.1D-01, r^2= 9.1D+00
   Bfn.  Coefficient  Atom+Function         Bfn.  Coefficient  Atom+Function  
  ----- ------------  ---------------      ----- ------------  ---------------
   471      0.203816  28 C  s               541      0.200549  32 C  s         
   469     -0.182595  28 C  s               595     -0.166088  36 C  s         
   392      0.157151  23 C  s         

 Vector   38  Occ=2.000000D+00  E=-9.316645D-01
              MO Center= -1.3D-01,  1.0D+00, -2.8D-01, r^2= 9.8D+00
   Bfn.  Coefficient  Atom+Function         Bfn.  Coefficient  Atom+Function  
  ----- ------------  ---------------      ----- ------------  ---------------
   173      0.257525  11 C  s               138     -0.205987   9 C  s         
   172      0.154513  11 C  s         

 Vector   39  Occ=2.000000D+00  E=-8.810884D-01
              MO Center= -1.5D-01, -2.4D+00,  3.3D-01, r^2= 6.3D+00
   Bfn.  Coefficient  Atom+Function         Bfn.  Coefficient  Atom+Function  
  ----- ------------  ---------------      ----- ------------  ---------------
   393      0.219483  23 C  s               426     -0.211278  25 C  s         
   513      0.173320  31 S  s               400     -0.166433  23 C  pz        
   541     -0.158752  32 C  s         

 Vector   40  Occ=2.000000D+00  E=-8.402981D-01
              MO Center= -1.4D-01,  6.5D-01,  5.0D-02, r^2= 7.9D+00
   Bfn.  Coefficient  Atom+Function         Bfn.  Coefficient  Atom+Function  
  ----- ------------  ---------------      ----- ------------  ---------------
   139      0.309683   9 C  s               393      0.207223  23 C  s         
    12      0.172174   2 C  s               108     -0.164321   7 N  py        
   308      0.160144  19 C  s               107     -0.158892   7 N  px        
   362      0.156367  21 N  py        

 Vector   41  Occ=2.000000D+00  E=-8.211880D-01
              MO Center= -5.2D-01,  8.3D-01, -1.0D-01, r^2= 8.9D+00
   Bfn.  Coefficient  Atom+Function         Bfn.  Coefficient  Atom+Function  
  ----- ------------  ---------------      ----- ------------  ---------------
   108      0.217988   7 N  py              128      0.204543   8 H  s         
   514     -0.181166  31 S  s               105      0.175979   7 N  s         
   393      0.172454  23 C  s               107      0.155084   7 N  px        
    54     -0.152031   5 C  s                60     -0.150859   5 C  px        

 Vector   42  Occ=2.000000D+00  E=-8.058933D-01
              MO Center=  8.0D-01,  1.2D+00, -1.1D-01, r^2= 1.4D+01
   Bfn.  Coefficient  Atom+Function         Bfn.  Coefficient  Atom+Function  
  ----- ------------  ---------------      ----- ------------  ---------------
   514     -0.236154  31 S  s               268      0.224369  16 N  px        
   215     -0.184241  14 C  s               513     -0.169274  31 S  s         
   289      0.158108  17 H  s               217      0.154187  14 C  s         
   270      0.151026  16 N  pz        

 Vector   43  Occ=2.000000D+00  E=-7.916620D-01
              MO Center=  1.1D+00, -1.9D-01, -1.0D-01, r^2= 7.2D+00
   Bfn.  Coefficient  Atom+Function         Bfn.  Coefficient  Atom+Function  
  ----- ------------  ---------------      ----- ------------  ---------------
   309      0.266017  19 C  s               398     -0.231119  23 C  px        
   648     -0.224476  38 N  pz              361      0.213972  21 N  px        
   382     -0.214045  22 H  s               383     -0.190081  22 H  s         
   601      0.181202  36 C  pz              359     -0.179959  21 N  s         

 Vector   44  Occ=2.000000D+00  E=-7.788911D-01
              MO Center=  1.0D-01, -1.5D+00, -7.0D-03, r^2= 1.1D+01
   Bfn.  Coefficient  Atom+Function         Bfn.  Coefficient  Atom+Function  
  ----- ------------  ---------------      ----- ------------  ---------------
   514      0.301684  31 S  s               513      0.201123  31 S  s         
   648      0.164771  38 N  pz        

 Vector   45  Occ=2.000000D+00  E=-7.501200D-01
              MO Center=  1.2D+00,  1.9D+00, -6.9D-02, r^2= 8.1D+00
   Bfn.  Coefficient  Atom+Function         Bfn.  Coefficient  Atom+Function  
  ----- ------------  ---------------      ----- ------------  ---------------
   269      0.248477  16 N  py              298     -0.233824  18 H  s         
   289      0.163893  17 H  s         

 Vector   46  Occ=2.000000D+00  E=-7.402331D-01
              MO Center=  1.7D+00, -7.0D-01, -4.3D-01, r^2= 7.5D+00
   Bfn.  Coefficient  Atom+Function         Bfn.  Coefficient  Atom+Function  
  ----- ------------  ---------------      ----- ------------  ---------------
   646      0.262089  38 N  px              667     -0.257831  39 H  s         
   398     -0.214297  23 C  px              676      0.213871  40 H  s         
   647     -0.187158  38 N  py              594      0.153623  36 C  s         

 Vector   47  Occ=2.000000D+00  E=-7.326787D-01
              MO Center=  2.1D-01,  1.4D+00, -3.8D-02, r^2= 7.9D+00
   Bfn.  Coefficient  Atom+Function         Bfn.  Coefficient  Atom+Function  
  ----- ------------  ---------------      ----- ------------  ---------------
   144      0.258551   9 C  px              141      0.207703   9 C  px        
   309     -0.201274  19 C  s               145     -0.186846   9 C  py        
   312      0.183723  19 C  py              139      0.168256   9 C  s         
   109      0.161243   7 N  pz              128      0.150271   8 H  s         
   595     -0.150949  36 C  s         

 Vector   48  Occ=2.000000D+00  E=-7.096383D-01
              MO Center= -7.6D-01,  4.0D-01,  2.2D-01, r^2= 9.9D+00
   Bfn.  Coefficient  Atom+Function         Bfn.  Coefficient  Atom+Function  
  ----- ------------  ---------------      ----- ------------  ---------------
    83      0.207166   6 O  py               57     -0.178825   5 C  px        
    80     -0.176102   6 O  s         

 Vector   49  Occ=2.000000D+00  E=-6.946460D-01
              MO Center=  3.0D-02,  2.4D+00, -1.8D-01, r^2= 6.7D+00
   Bfn.  Coefficient  Atom+Function         Bfn.  Coefficient  Atom+Function  
  ----- ------------  ---------------      ----- ------------  ---------------
   173      0.236328  11 C  s               143      0.208049   9 C  pz        
   146      0.201008   9 C  pz              289      0.194672  17 H  s         
   270      0.179287  16 N  pz              218     -0.174576  14 C  px        
   162     -0.170155  10 H  s         

 Vector   50  Occ=2.000000D+00  E=-6.865424D-01
              MO Center=  3.9D-01, -1.2D-01,  2.4D-01, r^2= 9.2D+00
   Bfn.  Coefficient  Atom+Function         Bfn.  Coefficient  Atom+Function  
  ----- ------------  ---------------      ----- ------------  ---------------
   336      0.209225  20 O  px              334      0.191329  20 O  s         
   398      0.188696  23 C  px              399     -0.154216  23 C  py        

 Vector   51  Occ=2.000000D+00  E=-6.629096D-01
              MO Center=  2.1D-01,  1.3D+00,  1.0D-02, r^2= 1.1D+01
   Bfn.  Coefficient  Atom+Function         Bfn.  Coefficient  Atom+Function  
  ----- ------------  ---------------      ----- ------------  ---------------
   139      0.173416   9 C  s               173      0.170334  11 C  s         
   309     -0.164715  19 C  s               244      0.160502  15 O  py        
   218      0.153711  14 C  px        

 Vector   52  Occ=2.000000D+00  E=-6.584846D-01
              MO Center=  3.0D-01,  5.9D-01,  2.2D-01, r^2= 1.3D+01
   Bfn.  Coefficient  Atom+Function         Bfn.  Coefficient  Atom+Function  
  ----- ------------  ---------------      ----- ------------  ---------------
   139      0.198688   9 C  s               244     -0.186539  15 O  py        
   218     -0.162095  14 C  px              241     -0.162056  15 O  s         

 Vector   53  Occ=2.000000D+00  E=-6.347999D-01
              MO Center=  4.1D-01, -1.5D+00,  4.6D-01, r^2= 1.1D+01
   Bfn.  Coefficient  Atom+Function         Bfn.  Coefficient  Atom+Function  
  ----- ------------  ---------------      ----- ------------  ---------------
   622      0.194059  37 O  py              598      0.189606  36 C  pz        
   619     -0.186487  37 O  s               398      0.175598  23 C  px        
   472     -0.174594  28 C  px              595      0.175327  36 C  s         
   621     -0.151941  37 O  px        

 Vector   54  Occ=2.000000D+00  E=-6.313347D-01
              MO Center= -1.2D+00,  2.4D-01,  6.1D-01, r^2= 1.1D+01
   Bfn.  Coefficient  Atom+Function         Bfn.  Coefficient  Atom+Function  
  ----- ------------  ---------------      ----- ------------  ---------------
    44     -0.181444   4 H  s                16      0.180248   2 C  pz        
    35      0.168133   3 H  s                59      0.162942   5 C  pz        

 Vector   55  Occ=2.000000D+00  E=-6.175233D-01
              MO Center= -9.2D-02,  1.7D+00, -4.0D-02, r^2= 1.1D+01
   Bfn.  Coefficient  Atom+Function         Bfn.  Coefficient  Atom+Function  
  ----- ------------  ---------------      ----- ------------  ---------------
   142      0.173141   9 C  py              179     -0.161177  11 C  py        

 Vector   56  Occ=2.000000D+00  E=-6.145012D-01
              MO Center=  3.9D-01,  1.1D+00, -7.2D-02, r^2= 8.7D+00
   Bfn.  Coefficient  Atom+Function         Bfn.  Coefficient  Atom+Function  
  ----- ------------  ---------------      ----- ------------  ---------------
   336      0.258447  20 O  px              311     -0.180054  19 C  px        
   361      0.171020  21 N  px        

 Vector   57  Occ=2.000000D+00  E=-6.103839D-01
              MO Center= -1.1D+00,  2.4D-01,  2.1D-01, r^2= 9.9D+00
   Bfn.  Coefficient  Atom+Function         Bfn.  Coefficient  Atom+Function  
  ----- ------------  ---------------      ----- ------------  ---------------
   460      0.291734  27 H  s               427     -0.213934  25 C  s         
    83     -0.199854   6 O  py               58      0.197795   5 C  py        
    12      0.163088   2 C  s               310     -0.163228  19 C  s         
    16     -0.157936   2 C  pz              338      0.151230  20 O  pz        

 Vector   58  Occ=2.000000D+00  E=-5.968195D-01
              MO Center= -8.0D-01, -9.4D-01,  2.1D-01, r^2= 1.1D+01
   Bfn.  Coefficient  Atom+Function         Bfn.  Coefficient  Atom+Function  
  ----- ------------  ---------------      ----- ------------  ---------------
   471     -0.193222  28 C  s               360      0.183982  21 N  s         
   460      0.182260  27 H  s               546      0.178079  32 C  pz        
   384     -0.173973  22 H  s               575     -0.171216  34 H  s         
    13      0.153467   2 C  s                83      0.151788   6 O  py        
   430      0.152087  25 C  py              450     -0.151644  26 H  s         

 Vector   59  Occ=2.000000D+00  E=-5.932813D-01
              MO Center=  1.1D+00, -9.9D-02,  8.6D-02, r^2= 1.5D+01
   Bfn.  Coefficient  Atom+Function         Bfn.  Coefficient  Atom+Function  
  ----- ------------  ---------------      ----- ------------  ---------------
   243      0.201201  15 O  px              621     -0.191991  37 O  px        
   619     -0.184374  37 O  s               623     -0.176501  37 O  pz        
   219      0.172405  14 C  py              597     -0.159677  36 C  py        
   367      0.158657  21 N  px        

 Vector   60  Occ=2.000000D+00  E=-5.853852D-01
              MO Center=  3.5D-01,  1.5D+00,  1.4D-01, r^2= 1.5D+01
   Bfn.  Coefficient  Atom+Function         Bfn.  Coefficient  Atom+Function  
  ----- ------------  ---------------      ----- ------------  ---------------
   173      0.217432  11 C  s               243      0.195233  15 O  px        
   220      0.188054  14 C  pz              244     -0.168238  15 O  py        
   269     -0.152304  16 N  py        

 Vector   61  Occ=2.000000D+00  E=-5.829348D-01
              MO Center= -1.3D+00, -1.1D+00,  2.0D-01, r^2= 1.3D+01
   Bfn.  Coefficient  Atom+Function         Bfn.  Coefficient  Atom+Function  
  ----- ------------  ---------------      ----- ------------  ---------------
   427      0.267299  25 C  s               470     -0.264297  28 C  s         
   545     -0.257683  32 C  py              583      0.192180  35 H  s         
   503      0.178176  30 H  s                 1     -0.171150   1 H  s         
   471     -0.167125  28 C  s               460     -0.152990  27 H  s         
   566     -0.150991  33 H  s         

 Vector   62  Occ=2.000000D+00  E=-5.781200D-01
              MO Center= -1.8D+00,  6.3D-03,  3.0D-01, r^2= 1.3D+01
   Bfn.  Coefficient  Atom+Function         Bfn.  Coefficient  Atom+Function  
  ----- ------------  ---------------      ----- ------------  ---------------
     2      0.250299   1 H  s                15     -0.222864   2 C  py        
     1      0.215598   1 H  s                13     -0.215066   2 C  s         
   575     -0.202869  34 H  s               427      0.184791  25 C  s         
   470     -0.181741  28 C  s               545     -0.178801  32 C  py        
   583      0.165338  35 H  s               460     -0.160455  27 H  s         

 Vector   63  Occ=2.000000D+00  E=-5.663747D-01
              MO Center= -1.3D+00, -4.9D-01,  1.1D-01, r^2= 1.3D+01
   Bfn.  Coefficient  Atom+Function         Bfn.  Coefficient  Atom+Function  
  ----- ------------  ---------------      ----- ------------  ---------------
   575     -0.244510  34 H  s               546      0.222518  32 C  pz        
   565      0.217578  33 H  s               197      0.163342  12 H  s         
   574     -0.160909  34 H  s               503     -0.159252  30 H  s         
   595     -0.157661  36 C  s               450      0.154319  26 H  s         

 Vector   64  Occ=2.000000D+00  E=-5.618895D-01
              MO Center=  3.9D-01, -1.5D+00, -4.7D-03, r^2= 1.2D+01
   Bfn.  Coefficient  Atom+Function         Bfn.  Coefficient  Atom+Function  
  ----- ------------  ---------------      ----- ------------  ---------------
   360      0.225282  21 N  s               174      0.198803  11 C  s         
   427     -0.195374  25 C  s               595     -0.194214  36 C  s         
   140     -0.163452   9 C  s               597     -0.163350  36 C  py        
   622     -0.163558  37 O  py              583     -0.161611  35 H  s         
   647     -0.162132  38 N  py              545      0.159457  32 C  py        

 Vector   65  Occ=2.000000D+00  E=-5.519115D-01
              MO Center= -3.8D-03,  1.3D+00, -3.1D-01, r^2= 9.3D+00
   Bfn.  Coefficient  Atom+Function         Bfn.  Coefficient  Atom+Function  
  ----- ------------  ---------------      ----- ------------  ---------------
   205      0.233042  13 H  s               173      0.224193  11 C  s         
   175     -0.202862  11 C  px              338     -0.178760  20 O  pz        
   163     -0.177032  10 H  s               313     -0.164241  19 C  pz        
   197     -0.157259  12 H  s         

 Vector   66  Occ=2.000000D+00  E=-5.469832D-01
              MO Center=  1.4D-04, -7.7D-01,  2.9D-01, r^2= 1.2D+01
   Bfn.  Coefficient  Atom+Function         Bfn.  Coefficient  Atom+Function  
  ----- ------------  ---------------      ----- ------------  ---------------
   393      0.279061  23 C  s               460      0.227205  27 H  s         
   503      0.210358  30 H  s               430      0.196038  25 C  py        
   427     -0.184337  25 C  s               575      0.179972  34 H  s         
   471     -0.154107  28 C  s         

 Vector   67  Occ=2.000000D+00  E=-5.430488D-01
              MO Center= -1.7D+00,  1.4D+00,  2.7D-01, r^2= 6.3D+00
   Bfn.  Coefficient  Atom+Function         Bfn.  Coefficient  Atom+Function  
  ----- ------------  ---------------      ----- ------------  ---------------
   173      0.298683  11 C  s                84     -0.212792   6 O  pz        
    35      0.204971   3 H  s                16      0.192646   2 C  pz        
    44     -0.178571   4 H  s               139     -0.174261   9 C  s         
    82     -0.172914   6 O  px              109     -0.170371   7 N  pz        
    45     -0.168255   4 H  s                36      0.155677   3 H  s         

 Vector   68  Occ=2.000000D+00  E=-5.362494D-01
              MO Center=  2.6D-01,  2.1D+00, -3.5D-01, r^2= 8.6D+00
   Bfn.  Coefficient  Atom+Function         Bfn.  Coefficient  Atom+Function  
  ----- ------------  ---------------      ----- ------------  ---------------
   142      0.222537   9 C  py              179     -0.207977  11 C  py        
   175     -0.176613  11 C  px              141      0.173962   9 C  px        
   176     -0.160382  11 C  py              196     -0.156658  12 H  s         

 Vector   69  Occ=2.000000D+00  E=-5.276192D-01
              MO Center=  2.7D-01, -2.1D+00,  6.4D-01, r^2= 6.4D+00
   Bfn.  Coefficient  Atom+Function         Bfn.  Coefficient  Atom+Function  
  ----- ------------  ---------------      ----- ------------  ---------------
   393      0.243400  23 C  s               431     -0.237706  25 C  pz        
   459     -0.233484  27 H  s               427     -0.219362  25 C  s         
   460     -0.212405  27 H  s               399     -0.196675  23 C  py        
   474      0.172936  28 C  pz              429      0.164358  25 C  px        
   623     -0.156211  37 O  pz              397      0.152545  23 C  pz        

 Vector   70  Occ=2.000000D+00  E=-5.042623D-01
              MO Center=  7.1D-01, -2.0D+00,  6.5D-01, r^2= 5.3D+00
   Bfn.  Coefficient  Atom+Function         Bfn.  Coefficient  Atom+Function  
  ----- ------------  ---------------      ----- ------------  ---------------
   396      0.238488  23 C  py              430     -0.234535  25 C  py        
   416      0.220313  24 H  s               473      0.220973  28 C  py        
   595     -0.208096  36 C  s               417      0.197937  24 H  s         
   395      0.189723  23 C  px              470      0.175009  28 C  s         
   476      0.168332  28 C  py              503     -0.155410  30 H  s         

 Vector   71  Occ=2.000000D+00  E=-4.846895D-01
              MO Center= -9.5D-01, -3.0D+00,  1.1D-03, r^2= 4.6D+00
   Bfn.  Coefficient  Atom+Function         Bfn.  Coefficient  Atom+Function  
  ----- ------------  ---------------      ----- ------------  ---------------
   519      0.283773  31 S  px              544     -0.258071  32 C  px        
   472     -0.253980  28 C  px              451      0.230069  26 H  s         
   503      0.230966  30 H  s               493     -0.224078  29 H  s         
   460     -0.214715  27 H  s               547     -0.213536  32 C  px        
   471     -0.200255  28 C  s               393      0.189340  23 C  s         

 Vector   72  Occ=2.000000D+00  E=-4.666520D-01
              MO Center=  1.4D-01,  8.9D-01, -2.6D-02, r^2= 5.7D+00
   Bfn.  Coefficient  Atom+Function         Bfn.  Coefficient  Atom+Function  
  ----- ------------  ---------------      ----- ------------  ---------------
   337      0.377840  20 O  py              340      0.306828  20 O  py        
    84      0.279958   6 O  pz               87      0.218108   6 O  pz        
   109     -0.184019   7 N  pz              338     -0.177414  20 O  pz        
   359      0.165557  21 N  s               112     -0.161325   7 N  pz        

 Vector   73  Occ=2.000000D+00  E=-4.474817D-01
              MO Center= -1.2D+00,  2.9D-01,  2.2D-01, r^2= 8.0D+00
   Bfn.  Coefficient  Atom+Function         Bfn.  Coefficient  Atom+Function  
  ----- ------------  ---------------      ----- ------------  ---------------
    82      0.423442   6 O  px               85      0.350897   6 O  px        
   309      0.199264  19 C  s               623     -0.178269  37 O  pz        
    84     -0.169109   6 O  pz              105     -0.165010   7 N  s         

 Vector   74  Occ=2.000000D+00  E=-4.426949D-01
              MO Center=  6.0D-01, -5.3D-01,  2.5D-01, r^2= 9.9D+00
   Bfn.  Coefficient  Atom+Function         Bfn.  Coefficient  Atom+Function  
  ----- ------------  ---------------      ----- ------------  ---------------
    13      0.399692   2 C  s               427     -0.315665  25 C  s         
   310     -0.290409  19 C  s               623     -0.249701  37 O  pz        
   140     -0.238158   9 C  s               363     -0.238068  21 N  pz        
   360      0.225071  21 N  s               338      0.214657  20 O  pz        
    82     -0.212198   6 O  px              366     -0.204926  21 N  pz        

 Vector   75  Occ=2.000000D+00  E=-4.308708D-01
              MO Center=  3.7D-01,  3.5D+00, -1.2D-01, r^2= 8.3D+00
   Bfn.  Coefficient  Atom+Function         Bfn.  Coefficient  Atom+Function  
  ----- ------------  ---------------      ----- ------------  ---------------
   245      0.330574  15 O  pz              243      0.327171  15 O  px        
   246      0.267831  15 O  px              248      0.256200  15 O  pz        
   173     -0.218908  11 C  s               244      0.202619  15 O  py        
   247      0.157761  15 O  py              176      0.155079  11 C  py        

 Vector   76  Occ=2.000000D+00  E=-4.266116D-01
              MO Center= -7.7D-01, -2.3D+00, -5.6D-01, r^2= 8.0D+00
   Bfn.  Coefficient  Atom+Function         Bfn.  Coefficient  Atom+Function  
  ----- ------------  ---------------      ----- ------------  ---------------
   514      0.387716  31 S  s               521     -0.357087  31 S  pz        
   575     -0.237513  34 H  s               524     -0.230159  31 S  pz        
   427     -0.223802  25 C  s               477      0.216981  28 C  pz        
   474      0.201820  28 C  pz              494     -0.185458  29 H  s         
   547     -0.181233  32 C  px              543      0.167638  32 C  s         

 Vector   77  Occ=2.000000D+00  E=-4.160674D-01
              MO Center=  5.1D-01,  2.1D+00,  1.1D-01, r^2= 1.0D+01
   Bfn.  Coefficient  Atom+Function         Bfn.  Coefficient  Atom+Function  
  ----- ------------  ---------------      ----- ------------  ---------------
   245      0.241900  15 O  pz              109     -0.195726   7 N  pz        
   248      0.191462  15 O  pz              112     -0.188137   7 N  pz        
   270     -0.188389  16 N  pz              268      0.173777  16 N  px        
   271      0.170675  16 N  px               84      0.160845   6 O  pz        
   244     -0.158051  15 O  py        

 Vector   78  Occ=2.000000D+00  E=-4.122043D-01
              MO Center=  1.2D+00,  1.6D+00,  4.0D-02, r^2= 1.1D+01
   Bfn.  Coefficient  Atom+Function         Bfn.  Coefficient  Atom+Function  
  ----- ------------  ---------------      ----- ------------  ---------------
   270     -0.193368  16 N  pz              245      0.185342  15 O  pz        
   269      0.179317  16 N  py              271      0.180089  16 N  px        
   622      0.177321  37 O  py              647     -0.177948  38 N  py        
   268      0.164062  16 N  px              109      0.161464   7 N  pz        
   650     -0.155732  38 N  py              337      0.154308  20 O  py        

 Vector   79  Occ=2.000000D+00  E=-4.057339D-01
              MO Center=  1.5D+00, -9.3D-01, -1.2D-01, r^2= 8.4D+00
   Bfn.  Coefficient  Atom+Function         Bfn.  Coefficient  Atom+Function  
  ----- ------------  ---------------      ----- ------------  ---------------
   647     -0.275651  38 N  py              622      0.260639  37 O  py        
   650     -0.250887  38 N  py              625      0.209205  37 O  py        
   417      0.200357  24 H  s               623      0.200166  37 O  pz        
   646     -0.175946  38 N  px              595      0.171980  36 C  s         
   109     -0.168383   7 N  pz              337     -0.158279  20 O  py        

 Vector   80  Occ=2.000000D+00  E=-3.955167D-01
              MO Center=  1.6D+00, -1.0D+00,  2.5D-01, r^2= 6.1D+00
   Bfn.  Coefficient  Atom+Function         Bfn.  Coefficient  Atom+Function  
  ----- ------------  ---------------      ----- ------------  ---------------
   363      0.268474  21 N  pz              621      0.264268  37 O  px        
   366      0.255266  21 N  pz              338     -0.206309  20 O  pz        
   624      0.203194  37 O  px              623     -0.193689  37 O  pz        
    56     -0.187088   5 C  s               341     -0.162098  20 O  pz        
   174      0.160503  11 C  s               626     -0.158455  37 O  pz        

 Vector   81  Occ=2.000000D+00  E=-3.364974D-01
              MO Center= -1.1D+00, -3.0D+00, -7.9D-01, r^2= 2.9D+00
   Bfn.  Coefficient  Atom+Function         Bfn.  Coefficient  Atom+Function  
  ----- ------------  ---------------      ----- ------------  ---------------
   523      0.504518  31 S  py              520      0.487962  31 S  py        
   584      0.200812  35 H  s               566     -0.176322  33 H  s         

 Vector   82  Occ=0.000000D+00  E= 2.638880D-02
              MO Center= -2.5D+00,  1.2D+00,  8.6D-01, r^2= 3.3D+01
   Bfn.  Coefficient  Atom+Function         Bfn.  Coefficient  Atom+Function  
  ----- ------------  ---------------      ----- ------------  ---------------
   384      7.667007  22 H  s                63     -2.802761   5 C  px        
   174      2.281439  11 C  s               318      1.996105  19 C  py        
   461     -1.993093  27 H  s               147     -1.933917   9 C  px        
    12      1.755454   2 C  s                37     -1.618793   3 H  s         
   164     -1.555544  10 H  s               130      1.536355   8 H  s         

 Vector   83  Occ=0.000000D+00  E= 3.232170D-02
              MO Center=  2.0D-01,  5.8D-01, -1.6D+00, r^2= 3.3D+01
   Bfn.  Coefficient  Atom+Function         Bfn.  Coefficient  Atom+Function  
  ----- ------------  ---------------      ----- ------------  ---------------
    63      3.986581   5 C  px              149     -3.466658   9 C  pz        
    13      2.981985   2 C  s               645     -2.678455  38 N  s         
    65     -2.538692   5 C  pz              217     -2.379191  14 C  s         
   147      2.339710   9 C  px              164     -2.072655  10 H  s         
   595      2.012967  36 C  s               604     -1.886875  36 C  pz        

 Vector   84  Occ=0.000000D+00  E= 3.743796D-02
              MO Center= -1.2D-01,  2.1D+00,  1.1D+00, r^2= 3.9D+01
   Bfn.  Coefficient  Atom+Function         Bfn.  Coefficient  Atom+Function  
  ----- ------------  ---------------      ----- ------------  ---------------
   267      3.290256  16 N  s               147     -2.184573   9 C  px        
   226     -2.100703  14 C  pz              217     -2.058402  14 C  s         
   418      2.067494  24 H  s               291      2.033144  17 H  s         
     3     -1.848390   1 H  s                63     -1.685177   5 C  px        
   207     -1.692562  13 H  s               576     -1.560368  34 H  s         

 Vector   85  Occ=0.000000D+00  E= 3.935063D-02
              MO Center= -1.8D+00, -2.5D+00,  9.4D-01, r^2= 4.0D+01
   Bfn.  Coefficient  Atom+Function         Bfn.  Coefficient  Atom+Function  
  ----- ------------  ---------------      ----- ------------  ---------------
   595      5.365491  36 C  s               471     -3.626037  28 C  s         
   479     -2.545230  28 C  py              543      2.328554  32 C  s         
   645     -2.263481  38 N  s               402     -2.222339  23 C  py        
   384      2.171667  22 H  s               585     -2.106848  35 H  s         
   504     -2.076145  30 H  s               106      1.969372   7 N  s         

 Vector   86  Occ=0.000000D+00  E= 4.737950D-02
              MO Center=  6.9D-01,  6.4D-02, -1.1D+00, r^2= 4.7D+01
   Bfn.  Coefficient  Atom+Function         Bfn.  Coefficient  Atom+Function  
  ----- ------------  ---------------      ----- ------------  ---------------
    63      3.647895   5 C  px              149     -3.072039   9 C  pz        
   147      2.942059   9 C  px               13      2.803851   2 C  s         
   604      2.678856  36 C  pz              401     -2.556218  23 C  px        
    65     -2.517249   5 C  pz              595      2.442560  36 C  s         
   678      2.434711  40 H  s               182      2.322159  11 C  py        

 Vector   87  Occ=0.000000D+00  E= 4.984242D-02
              MO Center= -1.0D+00, -1.5D-01,  6.1D-01, r^2= 4.7D+01
   Bfn.  Coefficient  Atom+Function         Bfn.  Coefficient  Atom+Function  
  ----- ------------  ---------------      ----- ------------  ---------------
   471      2.824328  28 C  s               207      2.517082  13 H  s         
[...]
   148     -5.717136   9 C  py               64     -5.389710   5 C  py        

 Vector  200  Occ=0.000000D+00  E= 4.457281D-01
              MO Center= -8.7D-01, -7.1D-01,  9.6D-02, r^2= 2.3D+01
   Bfn.  Coefficient  Atom+Function         Bfn.  Coefficient  Atom+Function  
  ----- ------------  ---------------      ----- ------------  ---------------
   471     11.409471  28 C  s               147     -8.114983   9 C  px        
   360     -7.872995  21 N  s                56     -7.260890   5 C  s         
   174      7.104577  11 C  s               427     -7.120806  25 C  s         
   567     -5.102703  33 H  s                63     -4.931380   5 C  px        
    65      4.880616   5 C  pz              368      4.897962  21 N  py        

 Vector  201  Occ=0.000000D+00  E= 4.481939D-01
              MO Center=  6.1D-01, -3.2D-01, -1.8D-01, r^2= 2.0D+01
   Bfn.  Coefficient  Atom+Function         Bfn.  Coefficient  Atom+Function  
  ----- ------------  ---------------      ----- ------------  ---------------
   384     20.145888  22 H  s               310    -15.999527  19 C  s         
   140    -11.725792   9 C  s               106     10.189922   7 N  s         
   645    -10.075075  38 N  s               149     -9.206283   9 C  pz        
   147      8.997161   9 C  px               13      8.360908   2 C  s         
   148      7.803802   9 C  py              114     -7.563023   7 N  py        

 Vector  202  Occ=0.000000D+00  E= 4.526471D-01
              MO Center= -4.6D-01,  3.2D-01,  2.1D-01, r^2= 2.4D+01
   Bfn.  Coefficient  Atom+Function         Bfn.  Coefficient  Atom+Function  
  ----- ------------  ---------------      ----- ------------  ---------------
   595     13.779956  36 C  s               384    -11.833010  22 H  s         
   147    -11.704509   9 C  px              217      9.068125  14 C  s         
    56     -8.728694   5 C  s                63     -8.485643   5 C  px        
   318      7.483312  19 C  py              113     -7.350016   7 N  px        
   174      7.181466  11 C  s               149      6.969810   9 C  pz        

 Vector  203  Occ=0.000000D+00  E= 4.542757D-01
              MO Center= -6.3D-01,  6.5D-01,  5.8D-01, r^2= 2.4D+01
   Bfn.  Coefficient  Atom+Function         Bfn.  Coefficient  Atom+Function  
  ----- ------------  ---------------      ----- ------------  ---------------
   384     13.257630  22 H  s               310    -11.462384  19 C  s         
   471     11.375887  28 C  s               267    -10.850351  16 N  s         
   147      9.205744   9 C  px              645     -8.009196  38 N  s         
    13      7.352581   2 C  s               401      7.177664  23 C  px        
   113      6.719460   7 N  px              394     -6.702662  23 C  s         

 Vector  204  Occ=0.000000D+00  E= 4.593002D-01
              MO Center=  2.2D-02, -1.0D+00,  5.8D-01, r^2= 2.0D+01
   Bfn.  Coefficient  Atom+Function         Bfn.  Coefficient  Atom+Function  
  ----- ------------  ---------------      ----- ------------  ---------------
   595     20.560380  36 C  s               217     13.379900  14 C  s         
   384    -12.590520  22 H  s               403      8.445552  23 C  pz        
   471     -7.076462  28 C  s               435     -6.417661  25 C  px        
   543      6.353961  32 C  s               479     -5.986043  28 C  py        
   174     -5.616351  11 C  s               267     -4.904427  16 N  s         

 Vector  205  Occ=0.000000D+00  E= 4.618911D-01
              MO Center= -1.3D+00, -2.6D-01, -4.6D-02, r^2= 2.2D+01
   Bfn.  Coefficient  Atom+Function         Bfn.  Coefficient  Atom+Function  
  ----- ------------  ---------------      ----- ------------  ---------------
   106     14.116066   7 N  s               595      7.825362  36 C  s         
   217     -7.631663  14 C  s                89     -7.554410   6 O  py        
   543     -7.396527  32 C  s               267      7.341051  16 N  s         
    81     -6.979592   6 O  s               318      6.655599  19 C  py        
   147      5.675925   9 C  px              551     -5.406155  32 C  py        

 Vector  206  Occ=0.000000D+00  E= 4.655664D-01
              MO Center=  8.6D-01, -3.9D-01, -2.1D-01, r^2= 2.4D+01
   Bfn.  Coefficient  Atom+Function         Bfn.  Coefficient  Atom+Function  
  ----- ------------  ---------------      ----- ------------  ---------------
   318     15.913386  19 C  py              106     -8.532416   7 N  s         
   319     -8.001581  19 C  pz              595      7.939657  36 C  s         
   428     -7.125155  25 C  s               384     -6.896347  22 H  s         
   149      6.681250   9 C  pz              543      6.325286  32 C  s         
   317     -6.204632  19 C  px              368     -6.146631  21 N  py        

 Vector  207  Occ=0.000000D+00  E= 4.667010D-01
              MO Center= -7.1D-01, -8.1D-01, -1.9D-01, r^2= 2.3D+01
   Bfn.  Coefficient  Atom+Function         Bfn.  Coefficient  Atom+Function  
  ----- ------------  ---------------      ----- ------------  ---------------
   217     11.830050  14 C  s               471     11.421252  28 C  s         
   310    -10.376008  19 C  s                56     -9.381731   5 C  s         
   267     -8.549873  16 N  s               428     -8.353734  25 C  s         
   106      7.778198   7 N  s               595      7.554714  36 C  s         
   140     -7.102529   9 C  s               174      6.770781  11 C  s         

 Vector  208  Occ=0.000000D+00  E= 4.734958D-01
              MO Center=  1.8D-01, -2.8D-01,  1.3D-01, r^2= 2.2D+01
   Bfn.  Coefficient  Atom+Function         Bfn.  Coefficient  Atom+Function  
  ----- ------------  ---------------      ----- ------------  ---------------
   147     13.427275   9 C  px              595     11.850653  36 C  s         
   174    -11.612309  11 C  s               318    -11.487641  19 C  py        
    56     11.260375   5 C  s               217      8.720831  14 C  s         
   360     -8.479371  21 N  s               149     -7.716043   9 C  pz        
    13      7.593563   2 C  s               471     -7.245168  28 C  s         

 Vector  209  Occ=0.000000D+00  E= 4.794976D-01
              MO Center= -8.5D-01, -6.7D-01,  2.2D-01, r^2= 2.3D+01
   Bfn.  Coefficient  Atom+Function         Bfn.  Coefficient  Atom+Function  
  ----- ------------  ---------------      ----- ------------  ---------------
   595     16.503990  36 C  s               543    -14.336430  32 C  s         
   106      9.731471   7 N  s               542     -8.748733  32 C  s         
   174     -8.322517  11 C  s               318     -8.112109  19 C  py        
   645     -7.814478  38 N  s               566      7.089951  33 H  s         
   584      6.678107  35 H  s               471     -6.286963  28 C  s         

 Vector  210  Occ=0.000000D+00  E= 4.817008D-01
              MO Center= -6.6D-01,  3.3D-01, -2.2D-01, r^2= 2.1D+01
   Bfn.  Coefficient  Atom+Function         Bfn.  Coefficient  Atom+Function  
  ----- ------------  ---------------      ----- ------------  ---------------
   595     15.421321  36 C  s               148     13.414911   9 C  py        
   368     11.825542  21 N  py              317    -10.200533  19 C  px        
   318     -8.845182  19 C  py              471     -8.832812  28 C  s         
   173      8.563706  11 C  s                81      8.268862   6 O  s         
   106     -8.265078   7 N  s               360     -7.744798  21 N  s         

 Vector  211  Occ=0.000000D+00  E= 4.851873D-01
              MO Center= -7.9D-01, -3.0D-01, -3.1D-01, r^2= 2.2D+01
   Bfn.  Coefficient  Atom+Function         Bfn.  Coefficient  Atom+Function  
  ----- ------------  ---------------      ----- ------------  ---------------
   384     29.106515  22 H  s                56    -21.101024   5 C  s         
    13    -17.256252   2 C  s               217     17.221562  14 C  s         
   149     15.147324   9 C  pz              147    -14.169875   9 C  px        
   174     13.193297  11 C  s                63    -11.700488   5 C  px        
   543    -11.750679  32 C  s               471     11.292584  28 C  s         

 Vector  212  Occ=0.000000D+00  E= 4.859167D-01
              MO Center= -6.2D-01, -4.4D-01, -1.6D-01, r^2= 2.3D+01
   Bfn.  Coefficient  Atom+Function         Bfn.  Coefficient  Atom+Function  
  ----- ------------  ---------------      ----- ------------  ---------------
   471     16.222717  28 C  s               310    -13.343176  19 C  s         
   360     12.131580  21 N  s               140    -11.288372   9 C  s         
   217    -11.083036  14 C  s               267     10.507169  16 N  s         
    13     10.275602   2 C  s                12      9.913604   2 C  s         
   428     -9.694563  25 C  s               542      9.336330  32 C  s         

 Vector  213  Occ=0.000000D+00  E= 4.876294D-01
              MO Center=  4.1D-01,  6.5D-01, -4.1D-02, r^2= 2.1D+01
   Bfn.  Coefficient  Atom+Function         Bfn.  Coefficient  Atom+Function  
  ----- ------------  ---------------      ----- ------------  ---------------
   360     17.001527  21 N  s               217    -14.845785  14 C  s         
   149    -14.660016   9 C  pz              595    -12.861269  36 C  s         
   106     12.129206   7 N  s                12     10.244153   2 C  s         
    13      9.513433   2 C  s               147      8.745556   9 C  px        
    56      6.751205   5 C  s               310     -6.649185  19 C  s         

 Vector  214  Occ=0.000000D+00  E= 4.933011D-01
              MO Center=  1.4D-01, -4.5D-01,  3.8D-01, r^2= 2.3D+01
   Bfn.  Coefficient  Atom+Function         Bfn.  Coefficient  Atom+Function  
  ----- ------------  ---------------      ----- ------------  ---------------
   384     15.942527  22 H  s               595     13.803592  36 C  s         
   543     -9.399862  32 C  s               217     -8.887948  14 C  s         
   427      8.732682  25 C  s               106      7.661440   7 N  s         
   317      7.285744  19 C  px               56     -7.218096   5 C  s         
   461     -7.157973  27 H  s               451     -5.322746  26 H  s         

 Vector  215  Occ=0.000000D+00  E= 4.939102D-01
              MO Center= -5.0D-01, -4.9D-01,  2.7D-01, r^2= 2.3D+01
   Bfn.  Coefficient  Atom+Function         Bfn.  Coefficient  Atom+Function  
  ----- ------------  ---------------      ----- ------------  ---------------
   471     23.407711  28 C  s                13     22.669114   2 C  s         
   310    -18.367513  19 C  s               140    -15.322835   9 C  s         
   428    -15.388544  25 C  s               595     11.647892  36 C  s         
    63     10.241610   5 C  px              384    -10.157069  22 H  s         
   360      9.960614  21 N  s               451      8.638890  26 H  s         

 Vector  216  Occ=0.000000D+00  E= 5.025544D-01
              MO Center= -4.8D-01,  1.7D-01,  1.4D-01, r^2= 2.0D+01
   Bfn.  Coefficient  Atom+Function         Bfn.  Coefficient  Atom+Function  
  ----- ------------  ---------------      ----- ------------  ---------------
   471     14.913572  28 C  s               217    -12.824128  14 C  s         
   543     -9.368433  32 C  s               368      6.658263  21 N  py        
   114      5.112693   7 N  py              242      4.742894  15 O  s         
   503     -4.750635  30 H  s               367     -4.671462  21 N  px        
   267      4.343401  16 N  s               335      4.027348  20 O  s         


 center of mass
 --------------
 x =   0.06432361 y =   0.01997162 z =  -0.02203127

 moments of inertia (a.u.)
 ------------------
        8326.243065449449          -0.000000000004           0.000000000000
          -0.000000000004        4344.653709272105           0.000000000002
           0.000000000000           0.000000000002       11277.232019426454

  Mulliken analysis of the total density
  --------------------------------------

    Atom       Charge   Shell Charges
 -----------   ------   -------------------------------------------------------
    1 H    1     1.05   0.77  0.30  0.01  0.03 -0.05
    2 C    6     6.25   2.01  0.66  0.26  0.11  2.07  0.98 -0.00  0.06  0.11
    3 H    1     0.83   0.76  0.11  0.00  0.03 -0.07
    4 H    1     0.82   0.76  0.09  0.00  0.03 -0.06
    5 C    6     5.19   2.01  0.68  0.09 -0.06  1.90  0.36 -0.01  0.24 -0.01
    6 O    8     8.76   2.01  0.81  0.99  0.16  2.80  1.87  0.12  0.02 -0.01
    7 N    7     7.56   2.01  0.72  0.84 -0.08  2.45  1.42  0.12  0.05  0.04
    8 H    1     0.97   0.75  0.24 -0.01  0.06 -0.06
    9 C    6     6.70   2.01  0.66  0.16 -0.03  1.99  1.41  0.18  0.14  0.19
   10 H    1     1.05   0.78  0.23 -0.01  0.03  0.01
   11 C    6     6.04   2.01  0.66  0.52 -0.12  2.06  0.71  0.04  0.09  0.07
   12 H    1     1.00   0.77  0.26 -0.01  0.03 -0.04
   13 H    1     0.93   0.78  0.18 -0.01  0.03 -0.05
   14 C    6     4.68   2.01  0.68  0.05 -0.03  1.91 -0.09  0.01  0.24 -0.10
   15 O    8     8.84   2.01  0.81  1.02  0.20  2.80  1.84  0.15  0.02 -0.01
   16 N    7     7.17   2.01  0.72  0.74 -0.15  2.47  1.25  0.10  0.04 -0.03
   17 H    1     1.01   0.76  0.22 -0.01  0.05 -0.02
   18 H    1     0.87   0.73  0.17 -0.01  0.06 -0.07
   19 C    6     4.39   2.01  0.68 -0.08  0.03  1.89  0.12 -0.06  0.24 -0.43
   20 O    8     8.92   2.01  0.82  1.03  0.18  2.80  1.88  0.20  0.01 -0.00
   21 N    7     7.30   2.01  0.72  0.91 -0.19  2.44  1.44 -0.14  0.05  0.05
   22 H    1     0.90   0.73  0.30 -0.02  0.06 -0.17
   23 C    6     6.16   2.01  0.66  0.08  0.00  1.99  1.08  0.16  0.13  0.05
   24 H    1     1.11   0.78  0.29  0.00  0.03  0.01
   25 C    6     6.08   2.01  0.66  0.32 -0.04  2.03  0.80  0.04  0.09  0.17
   26 H    1     1.04   0.78  0.28  0.02  0.03 -0.07
   27 H    1     1.08   0.78  0.40 -0.05  0.03 -0.09
   28 C    6     5.53   2.01  0.65  0.06 -0.33  1.99  1.06  0.06  0.10 -0.07
   29 H    1     1.18   0.77  0.40 -0.03  0.03  0.01
   30 H    1     1.17   0.78  0.43 -0.02  0.03 -0.04
   31 S   16    15.55   2.00  2.03  0.86  0.72  0.12  6.00  2.30  1.52  0.10  0.12 -0.21
   32 C    6     6.00   2.01  0.65  0.50 -0.05  2.00  0.84 -0.02  0.07 -0.00
   33 H    1     1.03   0.76  0.18  0.05  0.03  0.01
   34 H    1     1.17   0.76  0.43  0.00  0.03 -0.05
   35 H    1     1.01   0.77  0.25 -0.00  0.03 -0.03
   36 C    6     4.58   2.01  0.68  0.10 -0.08  1.89 -0.20  0.02  0.24 -0.07
   37 O    8     8.91   2.01  0.82  1.05  0.23  2.79  1.85  0.15  0.01 -0.00
   38 N    7     7.25   2.01  0.72  0.81 -0.12  2.47  1.23  0.11  0.04 -0.01
   39 H    1     0.91   0.76  0.17 -0.02  0.05 -0.04
   40 H    1     1.00   0.75  0.22 -0.01  0.05 -0.02

       Multipole analysis of the density wrt the origin
       ------------------------------------------------

     L   x y z        total         open         nuclear
     -   - - -        -----         ----         -------
     0   0 0 0      0.000000      0.000000    162.000000

     1   1 0 0     -1.275485      0.000000      0.000000
     1   0 1 0      0.466445      0.000000     -0.000000
     1   0 0 1     -0.164652      0.000000      0.000000

     2   2 0 0    -98.066674      0.000000   2009.658485
     2   1 1 0      7.579376      0.000000     19.797695
     2   1 0 1     -9.272510      0.000000    -30.349971
     2   0 2 0   -110.786565      0.000000   4098.590411
     2   0 1 1     -0.251521      0.000000    -14.889509
     2   0 0 2    -88.955986      0.000000    416.729680


 Task  times  cpu:     6881.8s     wall:     6913.4s


                                NWChem Input Module
                                -------------------


 Summary of allocated global arrays
-----------------------------------
  No active global arrays


MA_summarize_allocated_blocks: starting scan ...
MA_summarize_allocated_blocks: scan completed: 0 heap blocks, 0 stack blocks
MA usage statistics:

	allocation statistics:
					      heap	     stack
					      ----	     -----
	current number of blocks	         0	         0
	maximum number of blocks	        16	        14
	current total bytes		         0	         0
	maximum total bytes		    156840	  37111432
	maximum total K-bytes		       157	     37112
	maximum total M-bytes		         1	        38


                                     CITATION
                                     --------
                Please cite the following reference when publishing
                           results obtained with NWChem:

          E. Apra, E. J. Bylaska, W. A. de Jong, N. Govind, K. Kowalski,
       T. P. Straatsma, M. Valiev, H. J. J. van Dam, Y. Alexeev, J. Anchell,
       V. Anisimov, F. W. Aquino, R. Atta-Fynn, J. Autschbach, N. P. Bauman,
     J. C. Becca, D. E. Bernholdt, K. Bhaskaran-Nair, S. Bogatko, P. Borowski,
         J. Boschen, J. Brabec, A. Bruner, E. Cauet, Y. Chen, G. N. Chuev,
      C. J. Cramer, J. Daily, M. J. O. Deegan, T. H. Dunning Jr., M. Dupuis,
   K. G. Dyall, G. I. Fann, S. A. Fischer, A. Fonari, H. Fruchtl, L. Gagliardi,
      J. Garza, N. Gawande, S. Ghosh, K. Glaesemann, A. W. Gotz, J. Hammond,
       V. Helms, E. D. Hermes, K. Hirao, S. Hirata, M. Jacquelin, L. Jensen,
   B. G. Johnson, H. Jonsson, R. A. Kendall, M. Klemm, R. Kobayashi, V. Konkov,
      S. Krishnamoorthy, M. Krishnan, Z. Lin, R. D. Lins, R. J. Littlefield,
      A. J. Logsdail, K. Lopata, W. Ma, A. V. Marenich, J. Martin del Campo,
   D. Mejia-Rodriguez, J. E. Moore, J. M. Mullin, T. Nakajima, D. R. Nascimento,
    J. A. Nichols, P. J. Nichols, J. Nieplocha, A. Otero-de-la-Roza, B. Palmer,
    A. Panyala, T. Pirojsirikul, B. Peng, R. Peverati, J. Pittner, L. Pollack,
   R. M. Richard, P. Sadayappan, G. C. Schatz, W. A. Shelton, D. W. Silverstein,
   D. M. A. Smith, T. A. Soares, D. Song, M. Swart, H. L. Taylor, G. S. Thomas,
            V. Tipparaju, D. G. Truhlar, K. Tsemekhman, T. Van Voorhis,
      A. Vazquez-Mayagoitia, P. Verma, O. Villa, A. Vishnu, K. D. Vogiatzis,
        D. Wang, J. H. Weare, M. J. Williamson, T. L. Windus, K. Wolinski,
        A. T. Wong, Q. Wu, C. Yang, Q. Yu, M. Zacharias, Z. Zhang, Y. Zhao,
                                and R. J. Harrison
                        "NWChem: Past, present, and future
                         J. Chem. Phys. 152, 184102 (2020)
                               doi:10.1063/5.0004997

                                      AUTHORS
                                      -------
  E. Apra, E. J. Bylaska, N. Govind, K. Kowalski, M. Valiev, D. Mejia-Rodriguez,
       A. Kunitsa, N. P. Bauman, A. Panyala, W. A. de Jong, T. P. Straatsma,
   H. J. J. van Dam, D. Wang, T. L. Windus, J. Hammond, J. Autschbach, A. Woods,
    K. Bhaskaran-Nair, J. Brabec, K. Lopata, S. A. Fischer, S. Krishnamoorthy,
     M. Jacquelin, W. Ma, M. Klemm, O. Villa, Y. Chen, V. Anisimov, F. Aquino,
     S. Hirata, M. T. Hackler, E. Hermes, L. Jensen, J. E. Moore, J. C. Becca,
      V. Konjkov, T. Risthaus, M. Malagoli, A. Marenich, A. Otero-de-la-Roza,
        J. Mullin, P. Nichols, R. Peverati, J. Pittner, Y. Zhao, P.-D. Fan,
        A. Fonari, M. J. Williamson, R. J. Harrison, J. R. Rehr, M. Dupuis,
     D. Silverstein, D. M. A. Smith, J. Nieplocha, V. Tipparaju, M. Krishnan,
     B. E. Van Kuiken, A. Vazquez-Mayagoitia, M. Swart, Q. Wu, T. Van Voorhis,
     A. A. Auer, M. Nooijen, L. D. Crosby, E. Brown, G. Cisneros, G. I. Fann,
   H. Fruchtl, J. Garza, K. Hirao, R. A. Kendall, J. A. Nichols, K. Tsemekhman,
    K. Wolinski, J. Anchell, D. E. Bernholdt, P. Borowski, T. Clark, D. Clerc,
   H. Dachsel, M. J. O. Deegan, K. Dyall, D. Elwood, E. Glendening, M. Gutowski,
   A. C. Hess, J. Jaffe, B. G. Johnson, J. Ju, R. Kobayashi, R. Kutteh, Z. Lin,
   R. Littlefield, X. Long, B. Meng, T. Nakajima, S. Niu, L. Pollack, M. Rosing,
   K. Glaesemann, G. Sandrone, M. Stave, H. Taylor, G. Thomas, J. H. van Lenthe,
                               A. T. Wong, Z. Zhang.

 Total times  cpu:     6881.9s     wall:     6913.9s
