export TMOUT=5400
export TMPDIR=/tmp
export PTMPDIR=/tmp/ptmp
 argument  1 = inputs/ASN_GLN_0.nw



============================== echo of input deck ==============================
start ASN_GLN_0
geometry
H          7.21800        9.13100       -2.49000
C          7.08700        9.63000       -1.53100
H          6.28100        9.14400       -0.98300
H          6.84700       10.67900       -1.68900
C          8.36700        9.51900       -0.73800
O          9.36000        8.99700       -1.23200
N          8.35000       10.01700        0.49800
H          7.47700       10.39000        0.84700
C          9.53300       10.14000        1.36100
H         10.37200       10.43600        0.72800
C          9.28300       11.27500        2.36800
H         10.19500       11.47700        2.92900
H          9.00900       12.18600        1.83500
C          8.16700       10.93000        3.33400
O          7.00300       11.16100        3.06700
N          8.48000       10.32300        4.45300
H          7.72000       10.09200        5.06600
H          9.43500       10.05100        4.62600
C          9.97800        8.83800        2.07000
O         10.85100        8.89100        2.93800
N          9.38700        7.68200        1.75300
H          8.66700        7.71000        1.04100
C          9.80800        6.36000        2.25200
H         10.05200        6.48000        3.30800
C          8.62700        5.35500        2.20200
H          8.89600        4.48900        2.80900
H          7.77400        5.82800        2.69000
C          8.15100        4.82900        0.83100
H          8.81800        4.04200        0.48200
H          7.16200        4.38400        0.94600
C          8.07200        5.92700       -0.21500
O          7.17500        6.75200       -0.20300
N          9.07300        6.07100       -1.05200
H          9.10100        6.93600       -1.57800
H          9.88500        5.48000       -0.95000
C         11.11100        5.88000        1.56900
O         11.13900        4.93400        0.78900
N         12.21900        6.56500        1.81200
H         13.07200        6.28300        1.35800
H         12.17600        7.38100        2.40800
end

basis
 * library aug-cc-pvdz
end

echo

scf
 direct
end

task scf energy
================================================================================


                                         
                                         


             Northwest Computational Chemistry Package (NWChem) 7.2.0
             --------------------------------------------------------


                    Environmental Molecular Sciences Laboratory
                       Pacific Northwest National Laboratory
                                Richland, WA 99352

                              Copyright (c) 1994-2022
                       Pacific Northwest National Laboratory
                            Battelle Memorial Institute

             NWChem is an open-source computational chemistry package
                        distributed under the terms of the
                      Educational Community License (ECL) 2.0
             A copy of the license is included with this distribution
                              in the LICENSE.TXT file

                                  ACKNOWLEDGMENT
                                  --------------

            This software and its documentation were developed at the
            EMSL at Pacific Northwest National Laboratory, a multiprogram
            national laboratory, operated for the U.S. Department of Energy
            by Battelle under Contract Number DE-AC05-76RL01830. Support
            for this work was provided by the Department of Energy Office
            of Biological and Environmental Research, Office of Basic
            Energy Sciences, and the Office of Advanced Scientific Computing.


           Job information
           ---------------

    hostname        = nova21-swift-1
    program         = /opt/rit/el9/20230413/app/linux-rhel9-x86_64_v3/gcc-11.2.1/nwchem-7.2.0-oxtctbuhfuzyfaoziquq6bki22grib3g/bin/nwchem
    date            = Thu Jul 10 05:27:41 2025

    compiled        = Wed_May_17_23:46:39_2023
    source          = /tmp/root/spack-stage/spack-stage-nwchem-7.2.0-oxtctbuhfuzyfaoziquq6bki22grib3g/spack-src
    nwchem branch   = 7.2.0
    nwchem revision = d0d141fd
    ga revision     = 5.8.0
    use scalapack   = T
    input           = inputs/ASN_GLN_0.nw
    prefix          = ASN_GLN_0.
    data base       = ./ASN_GLN_0.db
    status          = startup
    nproc           =        8
    time left       =     -1s



           Memory information
           ------------------

    heap     =   26214396 doubles =    200.0 Mbytes
    stack    =   26214401 doubles =    200.0 Mbytes
    global   =   52428800 doubles =    400.0 Mbytes (distinct from heap & stack)
    total    =  104857597 doubles =    800.0 Mbytes
    verify   = yes
    hardfail = no 


           Directory information
           ---------------------

  0 permanent = .
  0 scratch   = .




                                NWChem Input Module
                                -------------------



 Scaling coordinates for geometry "geometry" by  1.889725989
 (inverse scale =  0.529177249)

 C1  symmetry detected

          ------
          auto-z
          ------
  no constraints, skipping    0.0000000000000000     
  no constraints, skipping    0.0000000000000000     


                             Geometry "geometry" -> ""
                             -------------------------

 Output coordinates in angstroms (scale by  1.889725989 to convert to a.u.)

  No.       Tag          Charge          X              Y              Z
 ---- ---------------- ---------- -------------- -------------- --------------
    1 H                    1.0000    -4.22920934    -0.22261934     0.80375005
    2 C                    6.0000    -3.59571864    -1.01538559     0.40871310
    3 H                    1.0000    -3.56161590    -0.93728586    -0.67704628
    4 H                    1.0000    -3.99316764    -1.98572864     0.69756197
    5 C                    6.0000    -2.20095131    -0.85558647     0.96428338
    6 O                    8.0000    -1.95718000     0.01915143     1.78767767
    7 N                    7.0000    -1.27825384    -1.70755245     0.51844444
    8 H                    1.0000    -1.55048755    -2.37077221    -0.19505914
    9 C                    6.0000     0.08734093    -1.80798356     1.05178441
   10 H                    1.0000     0.02770847    -1.67691676     2.13413900
   11 C                    6.0000     0.61097267    -3.22814965     0.78028473
   12 H                    1.0000     1.56640321    -3.37091160     1.28430904
   13 H                    1.0000    -0.09077620    -3.96146634     1.17888373
   14 C                    6.0000     0.78401489    -3.48642009    -0.70328858
   15 O                    8.0000    -0.13509751    -3.89471251    -1.38744917
   16 N                    7.0000     1.94204781    -3.20796552    -1.25101278
   17 H                    1.0000     2.02330111    -3.37328254    -2.23731810
   18 H                    1.0000     2.66936327    -2.78274443    -0.69771606
   19 C                    6.0000     1.07879751    -0.73035594     0.55014454
   20 O                    8.0000     2.27729438    -0.84293340     0.81338127
   21 N                    7.0000     0.62516166     0.28792784    -0.18702480
   22 H                    1.0000    -0.36912738     0.31375643    -0.37898885
   23 C                    6.0000     1.43617738     1.44454121    -0.60942865
   24 H                    1.0000     2.41265881     1.05928019    -0.90460648
   25 C                    6.0000     0.83624308     2.09749408    -1.88262046
   26 H                    1.0000     1.58902707     2.76491117    -2.30527480
   27 H                    1.0000     0.67499341     1.30338480    -2.61260060
   28 C                    6.0000    -0.47765369     2.89891581    -1.76307339
   29 H                    1.0000    -0.27322941     3.89226883    -1.36618616
   30 H                    1.0000    -0.90334227     3.03221578    -2.75825747
   31 C                    6.0000    -1.50249712     2.20334703    -0.88452855
   32 O                    8.0000    -2.11634442     1.22624155    -1.27674579
   33 N                    7.0000    -1.61333318     2.57747951     0.36888529
   34 H                    1.0000    -2.12847787     1.95700936     0.98152527
   35 H                    1.0000    -0.98628342     3.28333184     0.72611084
   36 C                    6.0000     1.70245569     2.41531670     0.56589633
   37 O                    8.0000     1.20910401     3.53672064     0.62208623
   38 N                    7.0000     2.45533892     1.97729247     1.56451520
   39 H                    1.0000     2.62009416     2.58541112     2.34956069
   40 H                    1.0000     2.80813775     1.02974248     1.53995911

      Atomic Mass 
      ----------- 

      H                  1.007825
      C                 12.000000
      O                 15.994910
      N                 14.003070


 Effective nuclear repulsion energy (a.u.)    1909.9352848936

            Nuclear Dipole moment (a.u.) 
            ----------------------------
        X                 Y               Z
 ---------------- ---------------- ----------------
    -0.0000000000     0.0000000000     0.0000000000



                                Z-matrix (autoz)
                                -------- 

 Units are Angstrom for bonds and degrees for angles

      Type          Name      I     J     K     L     M      Value
      ----------- --------  ----- ----- ----- ----- ----- ----------
    1 Stretch                  1     2                       1.08896
    2 Stretch                  2     3                       1.08910
    3 Stretch                  2     4                       1.08764
    4 Stretch                  2     5                       1.50982
    5 Stretch                  5     6                       1.22579
    6 Stretch                  5     7                       1.33266
    7 Stretch                  7     8                       1.01146
    8 Stretch                  7     9                       1.46949
    9 Stretch                  9    10                       1.09189
   10 Stretch                  9    11                       1.53778
   11 Stretch                  9    19                       1.54787
   12 Stretch                 11    12                       1.08962
   13 Stretch                 11    13                       1.09045
   14 Stretch                 11    14                       1.51580
   15 Stretch                 14    15                       1.21637
   16 Stretch                 14    16                       1.31095
   17 Stretch                 16    17                       1.00336
   18 Stretch                 16    18                       1.00794
   19 Stretch                 19    20                       1.23222
   20 Stretch                 19    21                       1.33645
   21 Stretch                 21    22                       1.01298
   22 Stretch                 21    23                       1.47442
   23 Stretch                 23    24                       1.09045
   24 Stretch                 23    25                       1.55154
   25 Stretch                 23    36                       1.54748
   26 Stretch                 25    26                       1.09122
   27 Stretch                 25    27                       1.09063
   28 Stretch                 25    28                       1.54366
   29 Stretch                 28    29                       1.08906
   30 Stretch                 28    30                       1.09058
   31 Stretch                 28    31                       1.51854
   32 Stretch                 31    32                       1.21876
   33 Stretch                 31    33                       1.31275
   34 Stretch                 33    34                       1.01276
   35 Stretch                 33    35                       1.00947
   36 Stretch                 36    37                       1.22642
   37 Stretch                 36    38                       1.32512
   38 Stretch                 38    39                       1.00660
   39 Stretch                 38    40                       1.01140
   40 Bend                     1     2     3               109.12695
   41 Bend                     1     2     4               109.91144
   42 Bend                     1     2     5               109.07877
   43 Bend                     2     5     6               120.42537
   44 Bend                     2     5     7               116.66945
   45 Bend                     3     2     4               109.88774
   46 Bend                     3     2     5               109.28853
   47 Bend                     4     2     5               109.52860
   48 Bend                     5     7     8               117.95859
   49 Bend                     5     7     9               124.45038
   50 Bend                     6     5     7               122.90453
   51 Bend                     7     9    10               107.50667
   52 Bend                     7     9    11               108.38954
   53 Bend                     7     9    19               115.47002
   54 Bend                     8     7     9               117.47313
   55 Bend                     9    11    12               109.74946
   56 Bend                     9    11    13               109.71765
   57 Bend                     9    11    14               111.65558
   58 Bend                     9    19    20               119.35111
   59 Bend                     9    19    21               119.45888
   60 Bend                    10     9    11               107.72586
   61 Bend                    10     9    19               105.82293
   62 Bend                    11     9    19               111.56928
   63 Bend                    11    14    15               121.42873
   64 Bend                    11    14    16               118.26686
   65 Bend                    12    11    13               107.88403
   66 Bend                    12    11    14               109.28770
   67 Bend                    13    11    14               108.46035
   68 Bend                    14    16    17               116.56708
   69 Bend                    14    16    18               119.84642
   70 Bend                    15    14    16               120.25038
   71 Bend                    17    16    18               123.41390
   72 Bend                    19    21    22               117.20176
   73 Bend                    19    21    23               124.68139
   74 Bend                    20    19    21               121.17069
   75 Bend                    21    23    24               107.03573
   76 Bend                    21    23    25               110.64214
   77 Bend                    21    23    36               111.66421
   78 Bend                    22    21    23               117.75000
   79 Bend                    23    25    26               107.96801
   80 Bend                    23    25    27               107.45684
   81 Bend                    23    25    28               118.95047
   82 Bend                    23    36    37               122.62844
   83 Bend                    23    36    38               117.56603
   84 Bend                    24    23    25               105.83169
   85 Bend                    24    23    36               105.85146
   86 Bend                    25    23    36               115.20010
   87 Bend                    25    28    29               109.99867
   88 Bend                    25    28    30               108.96681
   89 Bend                    25    28    31               112.42249
   90 Bend                    26    25    27               106.74345
   91 Bend                    26    25    28               107.43555
   92 Bend                    27    25    28               107.69846
   93 Bend                    28    31    32               121.39673
   94 Bend                    28    31    33               118.60925
   95 Bend                    29    28    30               107.11753
   96 Bend                    29    28    31               109.48971
   97 Bend                    30    28    31               108.69285
   98 Bend                    31    33    34               116.48219
   99 Bend                    31    33    35               118.99380
  100 Bend                    32    31    33               119.55351
  101 Bend                    34    33    35               122.02427
  102 Bend                    36    38    39               118.75278
  103 Bend                    36    38    40               119.31297
  104 Bend                    37    36    38               119.75409
  105 Bend                    39    38    40               121.85930
  106 Torsion                  1     2     5     6           3.90999
  107 Torsion                  1     2     5     7        -176.37537
  108 Torsion                  2     5     7     8           3.25450
  109 Torsion                  2     5     7     9        -172.68906
  110 Torsion                  3     2     5     6         123.14342
  111 Torsion                  3     2     5     7         -57.14195
  112 Torsion                  4     2     5     6        -116.42329
  113 Torsion                  4     2     5     7          63.29134
  114 Torsion                  5     7     9    10          38.39602
  115 Torsion                  5     7     9    11         154.58256
  116 Torsion                  5     7     9    19         -79.43951
  117 Torsion                  6     5     7     8        -177.03859
  118 Torsion                  6     5     7     9           7.01786
  119 Torsion                  7     9    11    12        -172.31546
  120 Torsion                  7     9    11    13         -53.93781
  121 Torsion                  7     9    11    14          66.34164
  122 Torsion                  7     9    19    20        -170.82957
  123 Torsion                  7     9    19    21           7.59084
  124 Torsion                  8     7     9    10        -137.56558
  125 Torsion                  8     7     9    11         -21.37904
  126 Torsion                  8     7     9    19         104.59890
  127 Torsion                  9    11    14    15         -87.07821
  128 Torsion                  9    11    14    16          90.25431
  129 Torsion                  9    19    21    22           0.67340
  130 Torsion                  9    19    21    23         173.54279
  131 Torsion                 10     9    11    12         -56.27090
  132 Torsion                 10     9    11    13          62.10675
  133 Torsion                 10     9    11    14        -177.61379
  134 Torsion                 10     9    19    20          70.39893
  135 Torsion                 10     9    19    21        -111.18066
  136 Torsion                 11     9    19    20         -46.49333
  137 Torsion                 11     9    19    21         131.92707
  138 Torsion                 11    14    16    17        -178.93826
  139 Torsion                 11    14    16    18          -3.55028
  140 Torsion                 12    11     9    19          59.46133
  141 Torsion                 12    11    14    15         151.31155
  142 Torsion                 12    11    14    16         -31.35594
  143 Torsion                 13    11     9    19         177.83898
  144 Torsion                 13    11    14    15          33.93563
  145 Torsion                 13    11    14    16        -148.73185
  146 Torsion                 14    11     9    19         -61.88156
  147 Torsion                 15    14    16    17          -1.57317
  148 Torsion                 15    14    16    18         173.81481
  149 Torsion                 19    21    23    24          41.31496
  150 Torsion                 19    21    23    25         156.17084
  151 Torsion                 19    21    23    36         -74.09596
  152 Torsion                 20    19    21    22         179.06425
  153 Torsion                 20    19    21    23          -8.06636
  154 Torsion                 21    23    25    26        -165.41092
  155 Torsion                 21    23    25    27         -50.61021
  156 Torsion                 21    23    25    28          71.94788
  157 Torsion                 21    23    36    37        -111.26219
  158 Torsion                 21    23    36    38          66.11971
  159 Torsion                 22    21    23    24        -145.85141
  160 Torsion                 22    21    23    25         -30.99553
  161 Torsion                 22    21    23    36          98.73767
  162 Torsion                 23    25    28    29          79.25384
  163 Torsion                 23    25    28    30        -163.59873
  164 Torsion                 23    25    28    31         -43.03983
  165 Torsion                 23    36    38    39        -178.41429
  166 Torsion                 23    36    38    40          -1.50310
  167 Torsion                 24    23    25    26         -49.80143
  168 Torsion                 24    23    25    27          64.99928
  169 Torsion                 24    23    25    28        -172.44263
  170 Torsion                 24    23    36    37         132.60296
  171 Torsion                 24    23    36    38         -50.01514
  172 Torsion                 25    23    36    37          16.04902
  173 Torsion                 25    23    36    38        -166.56908
  174 Torsion                 25    28    31    32         -74.47724
  175 Torsion                 25    28    31    33          97.87051
  176 Torsion                 26    25    23    36          66.76374
  177 Torsion                 26    25    28    29         -43.65135
  178 Torsion                 26    25    28    30          73.49608
  179 Torsion                 26    25    28    31        -165.94502
  180 Torsion                 27    25    23    36        -178.43555
  181 Torsion                 27    25    28    29        -158.30824
  182 Torsion                 27    25    28    30         -41.16081
  183 Torsion                 27    25    28    31          79.39810
  184 Torsion                 28    25    23    36         -55.87747
  185 Torsion                 28    31    33    34        -165.38480
  186 Torsion                 28    31    33    35          -2.94270
  187 Torsion                 29    28    31    32         162.94165
  188 Torsion                 29    28    31    33         -24.71060
  189 Torsion                 30    28    31    32          46.23939
  190 Torsion                 30    28    31    33        -141.41286
  191 Torsion                 32    31    33    34           7.10730
  192 Torsion                 32    31    33    35         169.54940
  193 Torsion                 37    36    38    39          -0.95399
  194 Torsion                 37    36    38    40         175.95719


            XYZ format geometry
            -------------------
    40
 geometry
 H                    -4.22920934    -0.22261934     0.80375005
 C                    -3.59571864    -1.01538559     0.40871310
 H                    -3.56161590    -0.93728586    -0.67704628
 H                    -3.99316764    -1.98572864     0.69756197
 C                    -2.20095131    -0.85558647     0.96428338
 O                    -1.95718000     0.01915143     1.78767767
 N                    -1.27825384    -1.70755245     0.51844444
 H                    -1.55048755    -2.37077221    -0.19505914
 C                     0.08734093    -1.80798356     1.05178441
 H                     0.02770847    -1.67691676     2.13413900
 C                     0.61097267    -3.22814965     0.78028473
 H                     1.56640321    -3.37091160     1.28430904
 H                    -0.09077620    -3.96146634     1.17888373
 C                     0.78401489    -3.48642009    -0.70328858
 O                    -0.13509751    -3.89471251    -1.38744917
 N                     1.94204781    -3.20796552    -1.25101278
 H                     2.02330111    -3.37328254    -2.23731810
 H                     2.66936327    -2.78274443    -0.69771606
 C                     1.07879751    -0.73035594     0.55014454
 O                     2.27729438    -0.84293340     0.81338127
 N                     0.62516166     0.28792784    -0.18702480
 H                    -0.36912738     0.31375643    -0.37898885
 C                     1.43617738     1.44454121    -0.60942865
 H                     2.41265881     1.05928019    -0.90460648
 C                     0.83624308     2.09749408    -1.88262046
 H                     1.58902707     2.76491117    -2.30527480
 H                     0.67499341     1.30338480    -2.61260060
 C                    -0.47765369     2.89891581    -1.76307339
 H                    -0.27322941     3.89226883    -1.36618616
 H                    -0.90334227     3.03221578    -2.75825747
 C                    -1.50249712     2.20334703    -0.88452855
 O                    -2.11634442     1.22624155    -1.27674579
 N                    -1.61333318     2.57747951     0.36888529
 H                    -2.12847787     1.95700936     0.98152527
 H                    -0.98628342     3.28333184     0.72611084
 C                     1.70245569     2.41531670     0.56589633
 O                     1.20910401     3.53672064     0.62208623
 N                     2.45533892     1.97729247     1.56451520
 H                     2.62009416     2.58541112     2.34956069
 H                     2.80813775     1.02974248     1.53995911

 ==============================================================================
                                internuclear distances
 ------------------------------------------------------------------------------
       center one      |      center two      | atomic units |  angstroms
 ------------------------------------------------------------------------------
    2 C                |   1 H                |     2.05784  |     1.08896
    3 H                |   2 C                |     2.05810  |     1.08910
    4 H                |   2 C                |     2.05535  |     1.08764
    5 C                |   2 C                |     2.85315  |     1.50982
    6 O                |   5 C                |     2.31641  |     1.22579
    7 N                |   5 C                |     2.51837  |     1.33266
    8 H                |   7 N                |     1.91139  |     1.01146
    9 C                |   7 N                |     2.77692  |     1.46949
   10 H                |   9 C                |     2.06337  |     1.09189
   11 C                |   9 C                |     2.90599  |     1.53778
   12 H                |  11 C                |     2.05908  |     1.08962
   13 H                |  11 C                |     2.06066  |     1.09045
   14 C                |  11 C                |     2.86444  |     1.51580
   15 O                |  14 C                |     2.29860  |     1.21637
   16 N                |  14 C                |     2.47733  |     1.31095
   17 H                |  16 N                |     1.89607  |     1.00336
   18 H                |  16 N                |     1.90473  |     1.00794
   19 C                |   9 C                |     2.92506  |     1.54787
   20 O                |  19 C                |     2.32855  |     1.23222
   21 N                |  19 C                |     2.52553  |     1.33645
   22 H                |  21 N                |     1.91425  |     1.01298
   23 C                |  21 N                |     2.78626  |     1.47442
   24 H                |  23 C                |     2.06064  |     1.09045
   25 C                |  23 C                |     2.93199  |     1.55154
   26 H                |  25 C                |     2.06211  |     1.09122
   27 H                |  25 C                |     2.06100  |     1.09063
   28 C                |  25 C                |     2.91710  |     1.54366
   29 H                |  28 C                |     2.05803  |     1.08906
   30 H                |  28 C                |     2.06090  |     1.09058
   31 C                |  28 C                |     2.86962  |     1.51854
   32 O                |  31 C                |     2.30312  |     1.21876
   33 N                |  31 C                |     2.48073  |     1.31275
   34 H                |  33 N                |     1.91384  |     1.01276
   35 H                |  33 N                |     1.90762  |     1.00947
   36 C                |  23 C                |     2.92432  |     1.54748
   37 O                |  36 C                |     2.31759  |     1.22642
   38 N                |  36 C                |     2.50411  |     1.32512
   39 H                |  38 N                |     1.90220  |     1.00660
   40 H                |  38 N                |     1.91126  |     1.01140
 ------------------------------------------------------------------------------
                         number of included internuclear distances:         39
 ==============================================================================



 ==============================================================================
                                 internuclear angles
 ------------------------------------------------------------------------------
        center 1       |       center 2       |       center 3       |  degrees
 ------------------------------------------------------------------------------
    1 H                |   2 C                |   3 H                |   109.13
    1 H                |   2 C                |   4 H                |   109.91
    1 H                |   2 C                |   5 C                |   109.08
    3 H                |   2 C                |   4 H                |   109.89
    3 H                |   2 C                |   5 C                |   109.29
    4 H                |   2 C                |   5 C                |   109.53
    2 C                |   5 C                |   6 O                |   120.43
    2 C                |   5 C                |   7 N                |   116.67
    6 O                |   5 C                |   7 N                |   122.90
    5 C                |   7 N                |   8 H                |   117.96
    5 C                |   7 N                |   9 C                |   124.45
    8 H                |   7 N                |   9 C                |   117.47
    7 N                |   9 C                |  10 H                |   107.51
    7 N                |   9 C                |  11 C                |   108.39
    7 N                |   9 C                |  19 C                |   115.47
   10 H                |   9 C                |  11 C                |   107.73
   10 H                |   9 C                |  19 C                |   105.82
   11 C                |   9 C                |  19 C                |   111.57
    9 C                |  11 C                |  12 H                |   109.75
    9 C                |  11 C                |  13 H                |   109.72
    9 C                |  11 C                |  14 C                |   111.66
   12 H                |  11 C                |  13 H                |   107.88
   12 H                |  11 C                |  14 C                |   109.29
   13 H                |  11 C                |  14 C                |   108.46
   11 C                |  14 C                |  15 O                |   121.43
   11 C                |  14 C                |  16 N                |   118.27
   15 O                |  14 C                |  16 N                |   120.25
   14 C                |  16 N                |  17 H                |   116.57
   14 C                |  16 N                |  18 H                |   119.85
   17 H                |  16 N                |  18 H                |   123.41
    9 C                |  19 C                |  20 O                |   119.35
    9 C                |  19 C                |  21 N                |   119.46
   20 O                |  19 C                |  21 N                |   121.17
   19 C                |  21 N                |  22 H                |   117.20
   19 C                |  21 N                |  23 C                |   124.68
   22 H                |  21 N                |  23 C                |   117.75
   21 N                |  23 C                |  24 H                |   107.04
   21 N                |  23 C                |  25 C                |   110.64
   21 N                |  23 C                |  36 C                |   111.66
   24 H                |  23 C                |  25 C                |   105.83
   24 H                |  23 C                |  36 C                |   105.85
   25 C                |  23 C                |  36 C                |   115.20
   23 C                |  25 C                |  26 H                |   107.97
   23 C                |  25 C                |  27 H                |   107.46
   23 C                |  25 C                |  28 C                |   118.95
   26 H                |  25 C                |  27 H                |   106.74
   26 H                |  25 C                |  28 C                |   107.44
   27 H                |  25 C                |  28 C                |   107.70
   25 C                |  28 C                |  29 H                |   110.00
   25 C                |  28 C                |  30 H                |   108.97
   25 C                |  28 C                |  31 C                |   112.42
   29 H                |  28 C                |  30 H                |   107.12
   29 H                |  28 C                |  31 C                |   109.49
   30 H                |  28 C                |  31 C                |   108.69
   28 C                |  31 C                |  32 O                |   121.40
   28 C                |  31 C                |  33 N                |   118.61
   32 O                |  31 C                |  33 N                |   119.55
   31 C                |  33 N                |  34 H                |   116.48
   31 C                |  33 N                |  35 H                |   118.99
   34 H                |  33 N                |  35 H                |   122.02
   23 C                |  36 C                |  37 O                |   122.63
   23 C                |  36 C                |  38 N                |   117.57
   37 O                |  36 C                |  38 N                |   119.75
   36 C                |  38 N                |  39 H                |   118.75
   36 C                |  38 N                |  40 H                |   119.31
   39 H                |  38 N                |  40 H                |   121.86
 ------------------------------------------------------------------------------
                            number of included internuclear angles:         66
 ==============================================================================



  library name resolved from: environment
  library file name is: </opt/rit/el9/20230413/app/linux-rhel9-x86_64_v3/gcc-11.2.1/nwchem-7.2.0-oxtctbuhfuzyfaoziquq6bki22grib3g/share/nwchem/libraries/>
  


 Summary of "ao basis" -> "" (cartesian)
 ------------------------------------------------------------------------------
       Tag                 Description            Shells   Functions and Types
 ---------------- ------------------------------  ------  ---------------------
 *                        aug-cc-pvdz                 on all atoms 


                      Basis "ao basis" -> "ao basis" (cartesian)
                      -----
  H (Hydrogen)
  ------------
            Exponent  Coefficients 
       -------------- ---------------------------------------------------------
  1 S  1.30100000E+01  0.019685
  1 S  1.96200000E+00  0.137977
  1 S  4.44600000E-01  0.478148

  2 S  1.22000000E-01  1.000000

  3 S  2.97400000E-02  1.000000

  4 P  7.27000000E-01  1.000000

  5 P  1.41000000E-01  1.000000

  C (Carbon)
  ----------
            Exponent  Coefficients 
       -------------- ---------------------------------------------------------
  1 S  6.66500000E+03  0.000692
  1 S  1.00000000E+03  0.005329
  1 S  2.28000000E+02  0.027077
  1 S  6.47100000E+01  0.101718
  1 S  2.10600000E+01  0.274740
  1 S  7.49500000E+00  0.448564
  1 S  2.79700000E+00  0.285074
  1 S  5.21500000E-01  0.015204

  2 S  6.66500000E+03 -0.000146
  2 S  1.00000000E+03 -0.001154
  2 S  2.28000000E+02 -0.005725
  2 S  6.47100000E+01 -0.023312
  2 S  2.10600000E+01 -0.063955
  2 S  7.49500000E+00 -0.149981
  2 S  2.79700000E+00 -0.127262
  2 S  5.21500000E-01  0.544529

  3 S  1.59600000E-01  1.000000

  4 S  4.69000000E-02  1.000000

  5 P  9.43900000E+00  0.038109
  5 P  2.00200000E+00  0.209480
  5 P  5.45600000E-01  0.508557

  6 P  1.51700000E-01  1.000000

  7 P  4.04100000E-02  1.000000

  8 D  5.50000000E-01  1.000000

  9 D  1.51000000E-01  1.000000

  O (Oxygen)
  ----------
            Exponent  Coefficients 
       -------------- ---------------------------------------------------------
  1 S  1.17200000E+04  0.000710
  1 S  1.75900000E+03  0.005470
  1 S  4.00800000E+02  0.027837
  1 S  1.13700000E+02  0.104800
  1 S  3.70300000E+01  0.283062
  1 S  1.32700000E+01  0.448719
  1 S  5.02500000E+00  0.270952
  1 S  1.01300000E+00  0.015458

  2 S  1.17200000E+04 -0.000160
  2 S  1.75900000E+03 -0.001263
  2 S  4.00800000E+02 -0.006267
  2 S  1.13700000E+02 -0.025716
  2 S  3.70300000E+01 -0.070924
  2 S  1.32700000E+01 -0.165411
  2 S  5.02500000E+00 -0.116955
  2 S  1.01300000E+00  0.557368

  3 S  3.02300000E-01  1.000000

  4 S  7.89600000E-02  1.000000

  5 P  1.77000000E+01  0.043018
  5 P  3.85400000E+00  0.228913
  5 P  1.04600000E+00  0.508728

  6 P  2.75300000E-01  1.000000

  7 P  6.85600000E-02  1.000000

  8 D  1.18500000E+00  1.000000

  9 D  3.32000000E-01  1.000000

  N (Nitrogen)
  ------------
            Exponent  Coefficients 
       -------------- ---------------------------------------------------------
  1 S  9.04600000E+03  0.000700
  1 S  1.35700000E+03  0.005389
  1 S  3.09300000E+02  0.027406
  1 S  8.77300000E+01  0.103207
  1 S  2.85600000E+01  0.278723
  1 S  1.02100000E+01  0.448540
  1 S  3.83800000E+00  0.278238
  1 S  7.46600000E-01  0.015440

  2 S  9.04600000E+03 -0.000153
  2 S  1.35700000E+03 -0.001208
  2 S  3.09300000E+02 -0.005992
  2 S  8.77300000E+01 -0.024544
  2 S  2.85600000E+01 -0.067459
  2 S  1.02100000E+01 -0.158078
  2 S  3.83800000E+00 -0.121831
  2 S  7.46600000E-01  0.549003

  3 S  2.24800000E-01  1.000000

  4 S  6.12400000E-02  1.000000

  5 P  1.35500000E+01  0.039919
  5 P  2.91700000E+00  0.217169
  5 P  7.97300000E-01  0.510319

  6 P  2.18500000E-01  1.000000

  7 P  5.61100000E-02  1.000000

  8 D  8.17000000E-01  1.000000

  9 D  2.30000000E-01  1.000000



 Summary of "ao basis" -> "ao basis" (cartesian)
 ------------------------------------------------------------------------------
       Tag                 Description            Shells   Functions and Types
 ---------------- ------------------------------  ------  ---------------------
 H                        aug-cc-pvdz                5        9   3s2p
 C                        aug-cc-pvdz                9       25   4s3p2d
 O                        aug-cc-pvdz                9       25   4s3p2d
 N                        aug-cc-pvdz                9       25   4s3p2d


                                 NWChem SCF Module
                                 -----------------



  ao basis        = "ao basis"
  functions       =   696
  atoms           =    40
  closed shells   =    80
  open shells     =     0
  charge          =   0.00
  wavefunction    = RHF 
  input vectors   = atomic
  output vectors  = ./ASN_GLN_0.movecs
  use symmetry    = F
  symmetry adapt  = F


 Summary of "ao basis" -> "ao basis" (cartesian)
 ------------------------------------------------------------------------------
       Tag                 Description            Shells   Functions and Types
 ---------------- ------------------------------  ------  ---------------------
 H                        aug-cc-pvdz                5        9   3s2p
 C                        aug-cc-pvdz                9       25   4s3p2d
 O                        aug-cc-pvdz                9       25   4s3p2d
 N                        aug-cc-pvdz                9       25   4s3p2d



 Forming initial guess at       0.8s


 !! The overlap matrix has   6 vectors deemed linearly dependent with
    eigenvalues:
 2.02D-06 3.32D-06 6.08D-06 6.87D-06 8.27D-06 8.74D-06


      Superposition of Atomic Density Guess
      -------------------------------------

 Sum of atomic energies:       -1069.17223035

      Non-variational initial energy
      ------------------------------

 Total energy =   -1082.656863
 1-e energy   =   -5254.354555
 2-e energy   =    2261.762407
 HOMO         =      -0.306925
 LUMO         =       0.006276


 Starting SCF solution at     352.4s



 ----------------------------------------------
         Quadratically convergent ROHF

 Convergence threshold     :          1.000E-04
 Maximum no. of iterations :           30
 Final Fock-matrix accuracy:          1.000E-10
 ----------------------------------------------


              iter       energy          gnorm     gmax       time
             ----- ------------------- --------- --------- --------
                 1    -1073.9337673420  2.92D+00  1.47D-01    722.9
                 2    -1074.3747840703  9.34D-01  3.53D-02   1467.6
                 3    -1074.4509936414  7.32D-02  3.26D-03   2539.8
                 4    -1074.4517946114  4.51D-03  2.57D-04   3962.0
                 5    -1074.4517983184  9.89D-06  6.28D-07   6434.0


       Final RHF  results 
       ------------------ 

         Total SCF energy =  -1074.451798318352
      One-electron energy =  -5268.912976568588
      Two-electron energy =   2284.525893356660
 Nuclear repulsion energy =   1909.935284893575

        Time for solution =   6083.0s


             Final eigenvalues
             -----------------

              1      
    1  -20.5523
    2  -20.5352
    3  -20.5347
    4  -20.5329
    5  -20.5171
    6  -15.6146
    7  -15.6076
    8  -15.6039
    9  -15.5952
   10  -15.5728
   11  -11.3837
   12  -11.3689
   13  -11.3655
   14  -11.3622
   15  -11.3455
   16  -11.3239
   17  -11.3136
   18  -11.2717
   19  -11.2614
   20  -11.2432
   21  -11.2342
   22   -1.4160
   23   -1.4060
   24   -1.3976
   25   -1.3961
   26   -1.3887
   27   -1.2669
   28   -1.2511
   29   -1.2389
   30   -1.2244
   31   -1.2103
   32   -1.0935
   33   -1.0789
   34   -1.0035
   35   -0.9952
   36   -0.9339
   37   -0.8856
   38   -0.8393
   39   -0.8152
   40   -0.8091
   41   -0.7969
   42   -0.7821
   43   -0.7574
   44   -0.7446
   45   -0.7354
   46   -0.7172
   47   -0.7011
   48   -0.6912
   49   -0.6820
   50   -0.6799
   51   -0.6682
   52   -0.6492
   53   -0.6341
   54   -0.6276
   55   -0.6204
   56   -0.6176
   57   -0.6003
   58   -0.5958
   59   -0.5859
   60   -0.5818
   61   -0.5736
   62   -0.5694
   63   -0.5667
   64   -0.5550
   65   -0.5524
   66   -0.5393
   67   -0.5290
   68   -0.5230
   69   -0.5105
   70   -0.4949
   71   -0.4661
   72   -0.4537
   73   -0.4351
   74   -0.4315
   75   -0.4241
   76   -0.4235
   77   -0.4151
   78   -0.4104
   79   -0.4014
   80   -0.3971
   81    0.0272
   82    0.0344
   83    0.0392
   84    0.0412
   85    0.0492
   86    0.0527
   87    0.0564
   88    0.0605
   89    0.0615
   90    0.0698

                       ROHF Final Molecular Orbital Analysis
                       -------------------------------------

 Vector   22  Occ=2.000000D+00  E=-1.415997D+00
              MO Center=  1.5D+00, -7.0D-01,  5.4D-01, r^2= 2.9D+00
   Bfn.  Coefficient  Atom+Function         Bfn.  Coefficient  Atom+Function  
  ----- ------------  ---------------      ----- ------------  ---------------
   334      0.353548  20 O  s               333      0.321942  20 O  s         
   308      0.225015  19 C  s         

 Vector   23  Occ=2.000000D+00  E=-1.405957D+00
              MO Center=  4.5D-01, -3.4D+00, -1.0D+00, r^2= 2.5D+00
   Bfn.  Coefficient  Atom+Function         Bfn.  Coefficient  Atom+Function  
  ----- ------------  ---------------      ----- ------------  ---------------
   241      0.360241  15 O  s               240      0.335971  15 O  s         
   215      0.240616  14 C  s         

 Vector   24  Occ=2.000000D+00  E=-1.397579D+00
              MO Center=  1.3D+00,  2.7D+00,  6.7D-01, r^2= 2.7D+00
   Bfn.  Coefficient  Atom+Function         Bfn.  Coefficient  Atom+Function  
  ----- ------------  ---------------      ----- ------------  ---------------
   631      0.370241  37 O  s               630      0.338920  37 O  s         
   605      0.232241  36 C  s         

 Vector   25  Occ=2.000000D+00  E=-1.396108D+00
              MO Center= -1.7D+00, -2.1D-01,  1.1D+00, r^2= 2.8D+00
   Bfn.  Coefficient  Atom+Function         Bfn.  Coefficient  Atom+Function  
  ----- ------------  ---------------      ----- ------------  ---------------
    80      0.330156   6 O  s                79      0.321026   6 O  s         
    54      0.223842   5 C  s                12      0.174981   2 C  s         

 Vector   26  Occ=2.000000D+00  E=-1.388664D+00
              MO Center= -1.8D+00,  1.5D+00, -7.2D-01, r^2= 2.2D+00
   Bfn.  Coefficient  Atom+Function         Bfn.  Coefficient  Atom+Function  
  ----- ------------  ---------------      ----- ------------  ---------------
   538      0.348255  32 O  s               537      0.330947  32 O  s         
   512      0.231199  31 C  s         

 Vector   27  Occ=2.000000D+00  E=-1.266923D+00
              MO Center= -2.3D-02, -5.5D-01,  3.8D-01, r^2= 3.8D+00
   Bfn.  Coefficient  Atom+Function         Bfn.  Coefficient  Atom+Function  
  ----- ------------  ---------------      ----- ------------  ---------------
   105      0.263587   7 N  s               359      0.261791  21 N  s         
   358      0.244095  21 N  s               104      0.222601   7 N  s         
   334     -0.205524  20 O  s                80     -0.157802   6 O  s         
   333     -0.154356  20 O  s         

 Vector   28  Occ=2.000000D+00  E=-1.251085D+00
              MO Center= -2.0D-01, -5.5D-01,  3.7D-01, r^2= 4.6D+00
   Bfn.  Coefficient  Atom+Function         Bfn.  Coefficient  Atom+Function  
  ----- ------------  ---------------      ----- ------------  ---------------
   359     -0.328455  21 N  s               105      0.308756   7 N  s         
   104      0.251984   7 N  s               358     -0.232176  21 N  s         
    80     -0.153409   6 O  s         

 Vector   29  Occ=2.000000D+00  E=-1.238897D+00
              MO Center=  1.5D+00, -3.3D+00, -1.1D+00, r^2= 1.5D+00
   Bfn.  Coefficient  Atom+Function         Bfn.  Coefficient  Atom+Function  
  ----- ------------  ---------------      ----- ------------  ---------------
   265      0.364170  16 N  s               266      0.337594  16 N  s         
   241     -0.223573  15 O  s               218      0.212577  14 C  px        
   240     -0.189310  15 O  s               298      0.163810  18 H  s         
   289      0.153732  17 H  s         

 Vector   30  Occ=2.000000D+00  E=-1.224401D+00
              MO Center=  2.0D+00,  2.0D+00,  1.2D+00, r^2= 2.3D+00
   Bfn.  Coefficient  Atom+Function         Bfn.  Coefficient  Atom+Function  
  ----- ------------  ---------------      ----- ------------  ---------------
   656      0.383890  38 N  s               655      0.359242  38 N  s         
   631     -0.200702  37 O  s               630     -0.164380  37 O  s         
   688      0.159545  40 H  s               679      0.153228  39 H  s         
   359     -0.150587  21 N  s         

 Vector   31  Occ=2.000000D+00  E=-1.210290D+00
              MO Center= -1.5D+00,  2.3D+00,  9.5D-05, r^2= 1.8D+00
   Bfn.  Coefficient  Atom+Function         Bfn.  Coefficient  Atom+Function  
  ----- ------------  ---------------      ----- ------------  ---------------
   562      0.361138  33 N  s               563      0.354811  33 N  s         
   538     -0.230897  32 O  s               537     -0.182149  32 O  s         
   517      0.171332  31 C  pz              470     -0.162958  28 C  s         
   595      0.160770  35 H  s         

 Vector   32  Occ=2.000000D+00  E=-1.093463D+00
              MO Center=  2.2D-01, -4.1D-01, -9.1D-02, r^2= 8.1D+00
   Bfn.  Coefficient  Atom+Function         Bfn.  Coefficient  Atom+Function  
  ----- ------------  ---------------      ----- ------------  ---------------
   173      0.212107  11 C  s               138      0.175552   9 C  s         
   172      0.173483  11 C  s               426     -0.165578  25 C  s         
   174     -0.151263  11 C  s         

 Vector   33  Occ=2.000000D+00  E=-1.078861D+00
              MO Center=  2.6D-01,  7.4D-02, -4.9D-01, r^2= 9.2D+00
   Bfn.  Coefficient  Atom+Function         Bfn.  Coefficient  Atom+Function  
  ----- ------------  ---------------      ----- ------------  ---------------
   173      0.209201  11 C  s               426      0.201970  25 C  s         
   172      0.187143  11 C  s               469      0.164465  28 C  s         

 Vector   34  Occ=2.000000D+00  E=-1.003541D+00
              MO Center= -9.2D-01, -3.3D-01, -4.1D-02, r^2= 1.0D+01
   Bfn.  Coefficient  Atom+Function         Bfn.  Coefficient  Atom+Function  
  ----- ------------  ---------------      ----- ------------  ---------------
   173      0.296633  11 C  s                11      0.217360   2 C  s         
   470     -0.167428  28 C  s               172      0.162555  11 C  s         
   469     -0.159116  28 C  s         

 Vector   35  Occ=2.000000D+00  E=-9.951862D-01
              MO Center= -1.2D+00,  5.3D-01, -1.9D-01, r^2= 9.2D+00
   Bfn.  Coefficient  Atom+Function         Bfn.  Coefficient  Atom+Function  
  ----- ------------  ---------------      ----- ------------  ---------------
   470      0.239675  28 C  s                11      0.237203   2 C  s         
    12      0.194652   2 C  s               469      0.180551  28 C  s         
   392     -0.175573  23 C  s         

 Vector   36  Occ=2.000000D+00  E=-9.339216D-01
              MO Center= -2.8D-02, -1.5D+00,  3.3D-01, r^2= 7.3D+00
   Bfn.  Coefficient  Atom+Function         Bfn.  Coefficient  Atom+Function  
  ----- ------------  ---------------      ----- ------------  ---------------
   173      0.268560  11 C  s               138     -0.217612   9 C  s         
   180     -0.173697  11 C  pz              470      0.173550  28 C  s         
   172      0.155961  11 C  s         

 Vector   37  Occ=2.000000D+00  E=-8.855608D-01
              MO Center=  6.0D-01,  2.0D+00, -7.8D-01, r^2= 5.2D+00
   Bfn.  Coefficient  Atom+Function         Bfn.  Coefficient  Atom+Function  
  ----- ------------  ---------------      ----- ------------  ---------------
   393      0.369040  23 C  s               470      0.347560  28 C  s         
   426     -0.233637  25 C  s               400      0.211828  23 C  pz        
   475     -0.182331  28 C  px              613      0.163356  36 C  pz        
   459     -0.153897  27 H  s               477      0.150501  28 C  pz        

 Vector   38  Occ=2.000000D+00  E=-8.393251D-01
              MO Center=  7.8D-01, -6.1D-01,  2.7D-02, r^2= 7.5D+00
   Bfn.  Coefficient  Atom+Function         Bfn.  Coefficient  Atom+Function  
  ----- ------------  ---------------      ----- ------------  ---------------
   308      0.183525  19 C  s               393      0.179275  23 C  s         
   362     -0.167208  21 N  py        

 Vector   39  Occ=2.000000D+00  E=-8.152200D-01
              MO Center= -1.0D+00, -1.1D+00,  5.7D-01, r^2= 4.5D+00
   Bfn.  Coefficient  Atom+Function         Bfn.  Coefficient  Atom+Function  
  ----- ------------  ---------------      ----- ------------  ---------------
   128      0.245642   8 H  s               108     -0.242389   7 N  py        
   105      0.235119   7 N  s                54     -0.185107   5 C  s         
    60     -0.184677   5 C  px              109     -0.179612   7 N  pz        
    80      0.167865   6 O  s                12     -0.150328   2 C  s         

 Vector   40  Occ=2.000000D+00  E=-8.091348D-01
              MO Center=  1.1D+00, -2.3D+00, -5.1D-01, r^2= 6.9D+00
   Bfn.  Coefficient  Atom+Function         Bfn.  Coefficient  Atom+Function  
  ----- ------------  ---------------      ----- ------------  ---------------
   268      0.287469  16 N  px              215     -0.193499  14 C  s         
   216     -0.191010  14 C  s               298      0.184192  18 H  s         

 Vector   41  Occ=2.000000D+00  E=-7.969463D-01
              MO Center=  1.3D+00,  1.3D+00,  4.5D-01, r^2= 4.7D+00
   Bfn.  Coefficient  Atom+Function         Bfn.  Coefficient  Atom+Function  
  ----- ------------  ---------------      ----- ------------  ---------------
   309      0.263694  19 C  s               427     -0.264750  25 C  s         
   361      0.234810  21 N  px              382     -0.222193  22 H  s         
   660      0.183749  38 N  pz              400     -0.182624  23 C  pz        
   605     -0.175560  36 C  s               383     -0.166494  22 H  s         
   359     -0.162699  21 N  s               688      0.158573  40 H  s         

 Vector   42  Occ=2.000000D+00  E=-7.820860D-01
              MO Center= -8.6D-01,  2.0D+00, -1.6D-01, r^2= 5.7D+00
   Bfn.  Coefficient  Atom+Function         Bfn.  Coefficient  Atom+Function  
  ----- ------------  ---------------      ----- ------------  ---------------
   567      0.304468  33 N  pz              595      0.208617  35 H  s         
   512     -0.205251  31 C  s               520     -0.171162  31 C  pz        
   517     -0.160093  31 C  pz              538      0.156798  32 O  s         

 Vector   43  Occ=2.000000D+00  E=-7.573890D-01
              MO Center=  1.4D+00, -2.1D+00, -4.6D-01, r^2= 6.9D+00
   Bfn.  Coefficient  Atom+Function         Bfn.  Coefficient  Atom+Function  
  ----- ------------  ---------------      ----- ------------  ---------------
   298      0.263292  18 H  s               270      0.250918  16 N  pz        
   289     -0.204332  17 H  s               268      0.172981  16 N  px        

 Vector   44  Occ=2.000000D+00  E=-7.445803D-01
              MO Center=  1.7D+00,  1.3D+00,  6.9D-01, r^2= 5.7D+00
   Bfn.  Coefficient  Atom+Function         Bfn.  Coefficient  Atom+Function  
  ----- ------------  ---------------      ----- ------------  ---------------
   659      0.303360  38 N  py              688     -0.259368  40 H  s         
   679      0.192151  39 H  s               607     -0.158613  36 C  s         
   689     -0.156575  40 H  s               417      0.152054  24 H  s         

 Vector   45  Occ=2.000000D+00  E=-7.354472D-01
              MO Center=  2.6D-01, -1.3D+00,  1.6D-01, r^2= 7.3D+00
   Bfn.  Coefficient  Atom+Function         Bfn.  Coefficient  Atom+Function  
  ----- ------------  ---------------      ----- ------------  ---------------
   144      0.269150   9 C  px              106      0.232995   7 N  s         
   141      0.206184   9 C  px              109     -0.196904   7 N  pz        
   318      0.193257  19 C  py              270     -0.184890  16 N  pz        
   128      0.178059   8 H  s                55     -0.172990   5 C  s         
   289      0.153916  17 H  s               107     -0.150201   7 N  px        

 Vector   46  Occ=2.000000D+00  E=-7.171907D-01
              MO Center= -1.1D+00,  2.0D+00,  4.5D-02, r^2= 5.1D+00
   Bfn.  Coefficient  Atom+Function         Bfn.  Coefficient  Atom+Function  
  ----- ------------  ---------------      ----- ------------  ---------------
   566      0.276848  33 N  py              595      0.267786  35 H  s         
   586     -0.264707  34 H  s               565      0.245001  33 N  px        
   470     -0.237687  28 C  s               427      0.196400  25 C  s         
   587     -0.157068  34 H  s         

 Vector   47  Occ=2.000000D+00  E=-7.011479D-01
              MO Center=  9.3D-01,  2.8D-01,  3.2D-01, r^2= 1.1D+01
   Bfn.  Coefficient  Atom+Function         Bfn.  Coefficient  Atom+Function  
  ----- ------------  ---------------      ----- ------------  ---------------
   399      0.241057  23 C  py              679      0.216884  39 H  s         
   660      0.192769  38 N  pz              393      0.183758  23 C  s         
   427     -0.162847  25 C  s         

 Vector   48  Occ=2.000000D+00  E=-6.912403D-01
              MO Center=  2.1D-01, -3.8D-01,  3.1D-01, r^2= 1.1D+01
   Bfn.  Coefficient  Atom+Function         Bfn.  Coefficient  Atom+Function  
  ----- ------------  ---------------      ----- ------------  ---------------
    80      0.144800   6 O  s               218      0.137715  14 C  px        
   143      0.133570   9 C  pz               84      0.130960   6 O  pz        

 Vector   49  Occ=2.000000D+00  E=-6.819707D-01
              MO Center= -1.2D+00, -8.9D-02,  4.6D-01, r^2= 8.9D+00
   Bfn.  Coefficient  Atom+Function         Bfn.  Coefficient  Atom+Function  
  ----- ------------  ---------------      ----- ------------  ---------------
    80      0.193633   6 O  s                82      0.175959   6 O  px        
    57      0.166416   5 C  px               17     -0.155326   2 C  px        

 Vector   50  Occ=2.000000D+00  E=-6.799054D-01
              MO Center=  9.9D-01, -4.3D-01, -2.6D-01, r^2= 8.7D+00
   Bfn.  Coefficient  Atom+Function         Bfn.  Coefficient  Atom+Function  
  ----- ------------  ---------------      ----- ------------  ---------------
   336      0.204186  20 O  px              395      0.185712  23 C  px        
   416      0.175009  24 H  s               427     -0.175796  25 C  s         
   245     -0.162000  15 O  pz              399      0.159033  23 C  py        

 Vector   51  Occ=2.000000D+00  E=-6.681757D-01
              MO Center= -7.9D-01,  1.5D+00, -5.8D-01, r^2= 7.0D+00
   Bfn.  Coefficient  Atom+Function         Bfn.  Coefficient  Atom+Function  
  ----- ------------  ---------------      ----- ------------  ---------------
   470      0.309889  28 C  s               517      0.230777  31 C  pz        
   564     -0.185927  33 N  s               541     -0.184980  32 O  py        
   540     -0.181807  32 O  px              567     -0.180228  33 N  pz        
   520      0.177194  31 C  pz              538      0.169793  32 O  s         
   473      0.162564  28 C  py              493      0.156233  29 H  s         

 Vector   52  Occ=2.000000D+00  E=-6.492283D-01
              MO Center= -2.2D-01, -1.6D+00,  3.2D-01, r^2= 7.7D+00
   Bfn.  Coefficient  Atom+Function         Bfn.  Coefficient  Atom+Function  
  ----- ------------  ---------------      ----- ------------  ---------------
   143      0.189644   9 C  pz              245      0.185167  15 O  pz        
   162      0.181698  10 H  s               336      0.161305  20 O  px        
   107     -0.158477   7 N  px              241     -0.151453  15 O  s         

 Vector   53  Occ=2.000000D+00  E=-6.340644D-01
              MO Center=  4.4D-01, -8.6D-01,  2.4D-01, r^2= 1.0D+01
   Bfn.  Coefficient  Atom+Function         Bfn.  Coefficient  Atom+Function  
  ----- ------------  ---------------      ----- ------------  ---------------
   176      0.186963  11 C  py              634     -0.186162  37 O  py        
   336      0.150091  20 O  px        

 Vector   54  Occ=2.000000D+00  E=-6.275737D-01
              MO Center= -9.5D-02, -4.2D-01,  3.0D-01, r^2= 8.6D+00
   Bfn.  Coefficient  Atom+Function         Bfn.  Coefficient  Atom+Function  
  ----- ------------  ---------------      ----- ------------  ---------------
   336     -0.194283  20 O  px              311      0.183702  19 C  px        
   607      0.169211  36 C  s         

 Vector   55  Occ=2.000000D+00  E=-6.204155D-01
              MO Center=  6.9D-01,  1.4D+00,  1.2D-02, r^2= 9.0D+00
   Bfn.  Coefficient  Atom+Function         Bfn.  Coefficient  Atom+Function  
  ----- ------------  ---------------      ----- ------------  ---------------
   634     -0.223766  37 O  py              609      0.220719  36 C  py        
   633      0.179551  37 O  px              393     -0.160229  23 C  s         
   336     -0.153625  20 O  px        

 Vector   56  Occ=2.000000D+00  E=-6.176012D-01
              MO Center= -8.4D-01,  4.3D-01, -3.3D-01, r^2= 9.8D+00
   Bfn.  Coefficient  Atom+Function         Bfn.  Coefficient  Atom+Function  
  ----- ------------  ---------------      ----- ------------  ---------------
   515      0.183863  31 C  px              173     -0.163094  11 C  s         
   474      0.154962  28 C  pz              541     -0.154812  32 O  py        

 Vector   57  Occ=2.000000D+00  E=-6.003114D-01
              MO Center= -7.0D-01, -1.1D-01, -3.3D-01, r^2= 1.0D+01
   Bfn.  Coefficient  Atom+Function         Bfn.  Coefficient  Atom+Function  
  ----- ------------  ---------------      ----- ------------  ---------------
   163      0.171093  10 H  s               541     -0.158556  32 O  py        
   514     -0.154324  31 C  s                16      0.150788   2 C  pz        

 Vector   58  Occ=2.000000D+00  E=-5.957613D-01
              MO Center=  4.2D-01, -2.6D+00, -3.8D-01, r^2= 6.4D+00
   Bfn.  Coefficient  Atom+Function         Bfn.  Coefficient  Atom+Function  
  ----- ------------  ---------------      ----- ------------  ---------------
   243      0.337338  15 O  px              220     -0.223596  14 C  pz        
   241     -0.203833  15 O  s               173      0.189034  11 C  s         
   246      0.182732  15 O  px              177      0.180108  11 C  pz        
   196      0.175034  12 H  s               217      0.165388  14 C  s         
   197      0.151128  12 H  s               219     -0.150498  14 C  py        

 Vector   59  Occ=2.000000D+00  E=-5.858990D-01
              MO Center= -6.4D-01,  8.4D-01, -2.5D-01, r^2= 9.7D+00
   Bfn.  Coefficient  Atom+Function         Bfn.  Coefficient  Atom+Function  
  ----- ------------  ---------------      ----- ------------  ---------------
   514      0.221931  31 C  s               541      0.193126  32 O  py        
    83      0.190475   6 O  py              173     -0.169171  11 C  s         
    59     -0.155163   5 C  pz        

 Vector   60  Occ=2.000000D+00  E=-5.817839D-01
              MO Center= -2.8D-01,  5.2D-01,  1.0D-01, r^2= 1.0D+01
   Bfn.  Coefficient  Atom+Function         Bfn.  Coefficient  Atom+Function  
  ----- ------------  ---------------      ----- ------------  ---------------
    83      0.169188   6 O  py              400      0.162826  23 C  pz        
   609     -0.150237  36 C  py        

 Vector   61  Occ=2.000000D+00  E=-5.735702D-01
              MO Center= -5.9D-02,  1.7D-01, -2.4D-01, r^2= 1.1D+01
   Bfn.  Coefficient  Atom+Function         Bfn.  Coefficient  Atom+Function  
  ----- ------------  ---------------      ----- ------------  ---------------
   427      0.202247  25 C  s               205      0.193089  13 H  s         
   565     -0.173076  33 N  px              516      0.171137  31 C  py        
   540     -0.170963  32 O  px              175     -0.168592  11 C  px        
   173      0.167524  11 C  s         

 Vector   62  Occ=2.000000D+00  E=-5.693922D-01
              MO Center= -5.5D-01,  2.4D-01,  2.4D-01, r^2= 1.2D+01
   Bfn.  Coefficient  Atom+Function         Bfn.  Coefficient  Atom+Function  
  ----- ------------  ---------------      ----- ------------  ---------------
   417      0.243807  24 H  s                 2     -0.214584   1 H  s         
   427     -0.177316  25 C  s                15     -0.165356   2 C  py        
   175     -0.161363  11 C  px        

 Vector   63  Occ=2.000000D+00  E=-5.667318D-01
              MO Center= -1.3D-01,  9.2D-02,  9.5D-02, r^2= 1.2D+01
   Bfn.  Coefficient  Atom+Function         Bfn.  Coefficient  Atom+Function  
  ----- ------------  ---------------      ----- ------------  ---------------
     2      0.212232   1 H  s                16      0.183299   2 C  pz        
    35     -0.162398   3 H  s               417      0.153264  24 H  s         

 Vector   64  Occ=2.000000D+00  E=-5.549849D-01
              MO Center=  2.8D-01, -2.9D-01,  2.0D-01, r^2= 1.1D+01
   Bfn.  Coefficient  Atom+Function         Bfn.  Coefficient  Atom+Function  
  ----- ------------  ---------------      ----- ------------  ---------------
   205      0.206433  13 H  s               173      0.190794  11 C  s         
   427     -0.189456  25 C  s               145      0.171562   9 C  py        
   633      0.165065  37 O  px              470      0.163191  28 C  s         
   206      0.150535  13 H  s         

 Vector   65  Occ=2.000000D+00  E=-5.523796D-01
              MO Center= -1.2D+00, -7.7D-01,  3.7D-01, r^2= 9.7D+00
   Bfn.  Coefficient  Atom+Function         Bfn.  Coefficient  Atom+Function  
  ----- ------------  ---------------      ----- ------------  ---------------
     2      0.250256   1 H  s                 1      0.243571   1 H  s         
    15      0.243575   2 C  py               13     -0.211494   2 C  s         
   143      0.169385   9 C  pz              197     -0.164480  12 H  s         
    63     -0.161742   5 C  px              417      0.161446  24 H  s         
   393     -0.158021  23 C  s                44     -0.153880   4 H  s         

 Vector   66  Occ=2.000000D+00  E=-5.393350D-01
              MO Center= -4.7D-01, -3.3D-01, -3.2D-01, r^2= 1.1D+01
   Bfn.  Coefficient  Atom+Function         Bfn.  Coefficient  Atom+Function  
  ----- ------------  ---------------      ----- ------------  ---------------
   450      0.183416  26 H  s                 1      0.172219   1 H  s         
   175     -0.165412  11 C  px              451      0.164689  26 H  s         
   470     -0.157204  28 C  s         

 Vector   67  Occ=2.000000D+00  E=-5.289856D-01
              MO Center=  3.2D-01, -4.5D-01, -2.8D-01, r^2= 9.9D+00
   Bfn.  Coefficient  Atom+Function         Bfn.  Coefficient  Atom+Function  
  ----- ------------  ---------------      ----- ------------  ---------------
   176     -0.210404  11 C  py              173      0.198450  11 C  s         
    13      0.194417   2 C  s               142      0.192299   9 C  py        
   337     -0.191037  20 O  py              450      0.186718  26 H  s         
   451      0.180361  26 H  s               430      0.161003  25 C  py        
   340     -0.157637  20 O  py        

 Vector   68  Occ=2.000000D+00  E=-5.230343D-01
              MO Center= -1.8D+00, -7.1D-01,  5.9D-01, r^2= 6.8D+00
   Bfn.  Coefficient  Atom+Function         Bfn.  Coefficient  Atom+Function  
  ----- ------------  ---------------      ----- ------------  ---------------
    45      0.236201   4 H  s               173     -0.233290  11 C  s         
    35     -0.210522   3 H  s                16      0.207857   2 C  pz        
    44      0.204023   4 H  s                84     -0.197047   6 O  pz        
    36     -0.193877   3 H  s               109     -0.168037   7 N  pz        
   427      0.162206  25 C  s                83      0.155422   6 O  py        

 Vector   69  Occ=2.000000D+00  E=-5.104791D-01
              MO Center=  1.5D-01,  2.3D+00, -1.4D+00, r^2= 4.9D+00
   Bfn.  Coefficient  Atom+Function         Bfn.  Coefficient  Atom+Function  
  ----- ------------  ---------------      ----- ------------  ---------------
   459      0.266466  27 H  s               503     -0.261833  30 H  s         
   493      0.241049  29 H  s               431     -0.214708  25 C  pz        
   474      0.213322  28 C  pz              494      0.210880  29 H  s         
   460      0.200112  27 H  s               473      0.196800  28 C  py        
   430     -0.192386  25 C  py              451     -0.188176  26 H  s         

 Vector   70  Occ=2.000000D+00  E=-4.948970D-01
              MO Center=  7.7D-02,  2.1D+00, -1.2D+00, r^2= 4.3D+00
   Bfn.  Coefficient  Atom+Function         Bfn.  Coefficient  Atom+Function  
  ----- ------------  ---------------      ----- ------------  ---------------
   429      0.255544  25 C  px              472     -0.230553  28 C  px        
   432      0.212516  25 C  px              395     -0.209611  23 C  px        
   502      0.209798  30 H  s               470      0.191255  28 C  s         
   416     -0.185176  24 H  s         

 Vector   71  Occ=2.000000D+00  E=-4.660913D-01
              MO Center=  6.6D-01, -6.5D-01,  7.7D-01, r^2= 5.7D+00
   Bfn.  Coefficient  Atom+Function         Bfn.  Coefficient  Atom+Function  
  ----- ------------  ---------------      ----- ------------  ---------------
   337      0.367810  20 O  py              340      0.301772  20 O  py        
   338     -0.242091  20 O  pz              341     -0.192619  20 O  pz        
   139      0.189248   9 C  s                84      0.180330   6 O  pz        
    83     -0.174898   6 O  py              607      0.173724  36 C  s         
   163     -0.169663  10 H  s               427      0.150522  25 C  s         

 Vector   72  Occ=2.000000D+00  E=-4.536541D-01
              MO Center=  1.1D+00,  1.5D+00,  2.8D-01, r^2= 6.1D+00
   Bfn.  Coefficient  Atom+Function         Bfn.  Coefficient  Atom+Function  
  ----- ------------  ---------------      ----- ------------  ---------------
   635      0.342084  37 O  pz              638      0.273454  37 O  pz        
   338     -0.239704  20 O  pz              363      0.234128  21 N  pz        
   366      0.211839  21 N  pz              460      0.198625  27 H  s         
   633      0.192570  37 O  px              341     -0.188716  20 O  pz        
   494      0.174165  29 H  s               636      0.152602  37 O  px        

 Vector   73  Occ=2.000000D+00  E=-4.351044D-01
              MO Center=  1.4D-01, -3.3D+00, -8.4D-01, r^2= 4.1D+00
   Bfn.  Coefficient  Atom+Function         Bfn.  Coefficient  Atom+Function  
  ----- ------------  ---------------      ----- ------------  ---------------
   245      0.427158  15 O  pz              248      0.329180  15 O  pz        
   243     -0.296908  15 O  px              246     -0.244147  15 O  px        
   177      0.209207  11 C  pz              223     -0.194613  14 C  pz        
   235      0.185917  14 C  dxz             217     -0.178196  14 C  s         
   216     -0.164835  14 C  s               173      0.151269  11 C  s         

 Vector   74  Occ=2.000000D+00  E=-4.314841D-01
              MO Center= -1.7D+00, -6.3D-01,  1.1D+00, r^2= 5.2D+00
   Bfn.  Coefficient  Atom+Function         Bfn.  Coefficient  Atom+Function  
  ----- ------------  ---------------      ----- ------------  ---------------
    82      0.488060   6 O  px               85      0.392305   6 O  px        
    13     -0.187980   2 C  s                63     -0.178446   5 C  px        
    17      0.176613   2 C  px               14      0.173994   2 C  px        
   105     -0.162597   7 N  s         

 Vector   75  Occ=2.000000D+00  E=-4.241172D-01
              MO Center=  5.9D-01,  1.9D+00,  3.8D-01, r^2= 7.6D+00
   Bfn.  Coefficient  Atom+Function         Bfn.  Coefficient  Atom+Function  
  ----- ------------  ---------------      ----- ------------  ---------------
   633      0.259481  37 O  px              658     -0.252273  38 N  px        
   661     -0.238119  38 N  px              540      0.234059  32 O  px        
   636      0.212337  37 O  px              564      0.195331  33 N  s         
   368     -0.189004  21 N  py              543      0.182328  32 O  px        
   657     -0.180177  38 N  s               660      0.176335  38 N  pz        

 Vector   76  Occ=2.000000D+00  E=-4.235339D-01
              MO Center=  7.3D-01, -2.9D+00, -9.2D-01, r^2= 5.9D+00
   Bfn.  Coefficient  Atom+Function         Bfn.  Coefficient  Atom+Function  
  ----- ------------  ---------------      ----- ------------  ---------------
   269     -0.360486  16 N  py              244      0.346316  15 O  py        
   272     -0.310511  16 N  py              247      0.277590  15 O  py        
   267      0.235164  16 N  s                13      0.210976   2 C  s         
   271      0.167541  16 N  px              113      0.166612   7 N  px        
   268      0.164966  16 N  px              245     -0.163692  15 O  pz        

 Vector   77  Occ=2.000000D+00  E=-4.151407D-01
              MO Center= -2.9D-01,  1.8D+00, -3.0D-01, r^2= 7.3D+00
   Bfn.  Coefficient  Atom+Function         Bfn.  Coefficient  Atom+Function  
  ----- ------------  ---------------      ----- ------------  ---------------
   542      0.359509  32 O  pz              545      0.292133  32 O  pz        
   451      0.242111  26 H  s               658     -0.226798  38 N  px        
   661     -0.205841  38 N  px              635     -0.200564  37 O  pz        
   540     -0.197721  32 O  px              520     -0.188008  31 C  pz        
   470     -0.186960  28 C  s               607      0.186293  36 C  s         

 Vector   78  Occ=2.000000D+00  E=-4.104422D-01
              MO Center= -4.9D-01,  5.8D-01,  8.0D-02, r^2= 8.1D+00
   Bfn.  Coefficient  Atom+Function         Bfn.  Coefficient  Atom+Function  
  ----- ------------  ---------------      ----- ------------  ---------------
   542      0.271826  32 O  pz              545      0.221988  32 O  pz        
   635      0.176150  37 O  pz              109     -0.171299   7 N  pz        
   368     -0.159618  21 N  py              338      0.154967  20 O  pz        
   112     -0.152627   7 N  pz        

 Vector   79  Occ=2.000000D+00  E=-4.013697D-01
              MO Center=  1.1D-01, -4.0D-02,  5.2D-01, r^2= 6.4D+00
   Bfn.  Coefficient  Atom+Function         Bfn.  Coefficient  Atom+Function  
  ----- ------------  ---------------      ----- ------------  ---------------
   363     -0.261218  21 N  pz              106      0.237635   7 N  s         
   337      0.221467  20 O  py              366     -0.219750  21 N  pz        
   108     -0.201877   7 N  py              109      0.201254   7 N  pz        
   111     -0.194767   7 N  py              340      0.187857  20 O  py        
   607     -0.186776  36 C  s               112      0.182996   7 N  pz        

 Vector   80  Occ=2.000000D+00  E=-3.970871D-01
              MO Center= -8.4D-01,  1.7D+00, -3.6D-02, r^2= 5.5D+00
   Bfn.  Coefficient  Atom+Function         Bfn.  Coefficient  Atom+Function  
  ----- ------------  ---------------      ----- ------------  ---------------
   565      0.290179  33 N  px              568      0.259994  33 N  px        
   566     -0.237956  33 N  py              540     -0.225703  32 O  px        
   569     -0.207671  33 N  py              543     -0.191030  32 O  px        
   541      0.179600  32 O  py              384      0.153018  22 H  s         

 Vector   81  Occ=0.000000D+00  E= 2.724996D-02
              MO Center=  3.3D+00, -1.3D+00, -1.1D+00, r^2= 2.7D+01
   Bfn.  Coefficient  Atom+Function         Bfn.  Coefficient  Atom+Function  
  ----- ------------  ---------------      ----- ------------  ---------------
   384      2.638367  22 H  s               607      2.341079  36 C  s         
   267     -2.098194  16 N  s               217      2.047079  14 C  s         
   360      1.937547  21 N  s                13      1.737844   2 C  s         
   317      1.683265  19 C  px              149      1.672583   9 C  pz        
   514      1.531317  31 C  s               291     -1.522817  17 H  s         

 Vector   82  Occ=0.000000D+00  E= 3.439207D-02
              MO Center=  9.2D-01, -1.8D+00,  9.0D-01, r^2= 3.6D+01
   Bfn.  Coefficient  Atom+Function         Bfn.  Coefficient  Atom+Function  
  ----- ------------  ---------------      ----- ------------  ---------------
   174      5.223866  11 C  s               607     -4.593133  36 C  s         
   318      4.482639  19 C  py              471     -3.788450  28 C  s         
   319     -3.312578  19 C  pz              657      3.123868  38 N  s         
    56     -2.986225   5 C  s               514      2.859779  31 C  s         
   394     -2.758905  23 C  s               402      2.688225  23 C  py        

 Vector   83  Occ=0.000000D+00  E= 3.921269D-02
              MO Center=  2.1D+00,  2.7D-01,  1.6D+00, r^2= 3.8D+01
   Bfn.  Coefficient  Atom+Function         Bfn.  Coefficient  Atom+Function  
  ----- ------------  ---------------      ----- ------------  ---------------
   657     -2.789452  38 N  s               616      2.548331  36 C  pz        
   681     -2.455115  39 H  s               318      2.223389  19 C  py        
   207      1.855427  13 H  s               607      1.668654  36 C  s         
   291      1.380693  17 H  s               182      1.339950  11 C  py        
   394      1.271384  23 C  s               514      1.267294  31 C  s         

 Vector   84  Occ=0.000000D+00  E= 4.119561D-02
              MO Center= -1.1D+00,  1.2D-01, -1.2D+00, r^2= 4.4D+01
   Bfn.  Coefficient  Atom+Function         Bfn.  Coefficient  Atom+Function  
  ----- ------------  ---------------      ----- ------------  ---------------
    63      3.268359   5 C  px              384     -2.529050  22 H  s         
   657     -2.071640  38 N  s               504      2.036716  30 H  s         
    46      1.905235   4 H  s               148     -1.890420   9 C  py        
   452      1.886434  26 H  s               478      1.707429  28 C  px        
   437      1.692175  25 C  pz              198     -1.645330  12 H  s         

 Vector   85  Occ=0.000000D+00  E= 4.920551D-02
              MO Center= -5.7D-01, -4.7D-01, -2.9D-04, r^2= 4.8D+01
   Bfn.  Coefficient  Atom+Function         Bfn.  Coefficient  Atom+Function  
  ----- ------------  ---------------      ----- ------------  ---------------
    63      4.589820   5 C  px              198     -3.075985  12 H  s         
   148     -2.973617   9 C  py              384      2.636626  22 H  s         
   140     -2.401043   9 C  s               514     -2.392933  31 C  s         
    46      2.364180   4 H  s               267      2.360747  16 N  s         
   360      2.192052  21 N  s                13      2.156680   2 C  s         

 Vector   86  Occ=0.000000D+00  E= 5.271302D-02
              MO Center=  3.4D-01,  1.1D+00, -1.4D+00, r^2= 4.2D+01
   Bfn.  Coefficient  Atom+Function         Bfn.  Coefficient  Atom+Function  
  ----- ------------  ---------------      ----- ------------  ---------------
   418      4.060513  24 H  s               607      3.782267  36 C  s         
   435     -3.006018  25 C  px              217      2.751281  14 C  s         
   401     -2.654589  23 C  px              504     -2.639946  30 H  s         
   452      2.610637  26 H  s               207      2.328773  13 H  s         
   403     -2.196502  23 C  pz              471     -2.041223  28 C  s         

 Vector   87  Occ=0.000000D+00  E= 5.642144D-02
              MO Center=  9.3D-01, -1.0D+00,  2.7D-02, r^2= 4.2D+01
   Bfn.  Coefficient  Atom+Function         Bfn.  Coefficient  Atom+Function  
  ----- ------------  ---------------      ----- ------------  ---------------
    63      3.559392   5 C  px              147      3.113250   9 C  px        
   461     -2.846644  27 H  s               164     -2.746948  10 H  s         
   300      2.527704  18 H  s                 3      2.304819   1 H  s         
   198      2.263550  12 H  s               384      2.227086  22 H  s         
   149      2.060223   9 C  pz              291     -1.954580  17 H  s         

 Vector   88  Occ=0.000000D+00  E= 6.045562D-02
              MO Center= -2.5D-01,  1.7D+00, -8.4D-01, r^2= 4.0D+01
[...]

 Vector  195  Occ=0.000000D+00  E= 4.442007D-01
              MO Center=  1.5D-01, -2.1D-01, -5.0D-01, r^2= 2.1D+01
   Bfn.  Coefficient  Atom+Function         Bfn.  Coefficient  Atom+Function  
  ----- ------------  ---------------      ----- ------------  ---------------
   514     18.262088  31 C  s               318     16.210404  19 C  py        
   607     13.910269  36 C  s               384    -10.890909  22 H  s         
   401    -10.803397  23 C  px              217      9.856785  14 C  s         
   428     -8.602667  25 C  s               360     -8.444686  21 N  s         
   657     -7.666708  38 N  s               368     -6.651247  21 N  py        

 Vector  196  Occ=0.000000D+00  E= 4.500997D-01
              MO Center= -5.5D-01,  2.6D-01, -2.1D-01, r^2= 2.3D+01
   Bfn.  Coefficient  Atom+Function         Bfn.  Coefficient  Atom+Function  
  ----- ------------  ---------------      ----- ------------  ---------------
   401     11.572464  23 C  px              607    -10.681265  36 C  s         
   657      8.808246  38 N  s               317     -8.540299  19 C  px        
   147      8.074519   9 C  px              360      7.813451  21 N  s         
   564     -7.577561  33 N  s               615      7.600285  36 C  py        
   614     -7.446142  36 C  px              403      6.837661  23 C  pz        

 Vector  197  Occ=0.000000D+00  E= 4.530701D-01
              MO Center=  3.7D-01, -4.5D-01, -5.3D-01, r^2= 2.2D+01
   Bfn.  Coefficient  Atom+Function         Bfn.  Coefficient  Atom+Function  
  ----- ------------  ---------------      ----- ------------  ---------------
   217     17.868510  14 C  s               318    -13.436071  19 C  py        
   319     12.063138  19 C  pz              174    -10.899827  11 C  s         
   607     10.435686  36 C  s               402     -9.983402  23 C  py        
   113     -8.986730   7 N  px              147     -8.810880   9 C  px        
   384     -8.047690  22 H  s               106     -7.524746   7 N  s         

 Vector  198  Occ=0.000000D+00  E= 4.548484D-01
              MO Center= -6.5D-01,  1.0D+00, -3.2D-01, r^2= 1.9D+01
   Bfn.  Coefficient  Atom+Function         Bfn.  Coefficient  Atom+Function  
  ----- ------------  ---------------      ----- ------------  ---------------
   564     10.059922  33 N  s               217      9.523263  14 C  s         
    12     -8.659010   2 C  s               471     -8.641635  28 C  s         
   607      8.047176  36 C  s                45      5.376554   4 H  s         
   428     -4.885599  25 C  s                56     -4.780338   5 C  s         
   148      4.751744   9 C  py              470      4.750875  28 C  s         

 Vector  199  Occ=0.000000D+00  E= 4.581619D-01
              MO Center= -1.5D+00, -4.7D-01,  1.7D-01, r^2= 2.1D+01
   Bfn.  Coefficient  Atom+Function         Bfn.  Coefficient  Atom+Function  
  ----- ------------  ---------------      ----- ------------  ---------------
   174     15.369860  11 C  s               360    -10.910600  21 N  s         
   384    -10.106234  22 H  s               148      9.464317   9 C  py        
   319     -8.556151  19 C  pz              514      8.507317  31 C  s         
   403     -7.286516  23 C  pz              310      7.203896  19 C  s         
   616      7.237560  36 C  pz              113     -6.888490   7 N  px        

 Vector  200  Occ=0.000000D+00  E= 4.605083D-01
              MO Center= -4.1D-01, -6.4D-01,  1.3D-01, r^2= 2.0D+01
   Bfn.  Coefficient  Atom+Function         Bfn.  Coefficient  Atom+Function  
  ----- ------------  ---------------      ----- ------------  ---------------
   514     17.861376  31 C  s               318    -14.925105  19 C  py        
   564     -9.294748  33 N  s               428     -8.931145  25 C  s         
   403     -8.753217  23 C  pz              217     -7.604729  14 C  s         
   163     -6.565929  10 H  s                12      5.624997   2 C  s         
   106      5.466697   7 N  s                63     -5.000471   5 C  px        

 Vector  201  Occ=0.000000D+00  E= 4.635109D-01
              MO Center= -8.7D-02, -5.8D-01, -2.5D-01, r^2= 2.2D+01
   Bfn.  Coefficient  Atom+Function         Bfn.  Coefficient  Atom+Function  
  ----- ------------  ---------------      ----- ------------  ---------------
   174     16.416305  11 C  s               217    -14.962475  14 C  s         
   607    -14.978882  36 C  s               514     13.166042  31 C  s         
   267      9.660726  16 N  s               173      8.780914  11 C  s         
   657      8.132498  38 N  s                12      7.482024   2 C  s         
   471     -7.359959  28 C  s               197     -7.176833  12 H  s         

 Vector  202  Occ=0.000000D+00  E= 4.659315D-01
              MO Center= -6.7D-01, -2.7D-02, -1.0D-01, r^2= 2.2D+01
   Bfn.  Coefficient  Atom+Function         Bfn.  Coefficient  Atom+Function  
  ----- ------------  ---------------      ----- ------------  ---------------
   514     25.628829  31 C  s               106     13.702750   7 N  s         
    13    -13.463531   2 C  s                56    -12.568058   5 C  s         
   428    -11.467824  25 C  s               318     10.143666  19 C  py        
   403     -9.393541  23 C  pz               63     -7.410567   5 C  px        
    64     -6.217135   5 C  py              384     -6.235477  22 H  s         

 Vector  203  Occ=0.000000D+00  E= 4.737163D-01
              MO Center=  1.4D-01,  3.1D-01, -2.0D-01, r^2= 2.1D+01
   Bfn.  Coefficient  Atom+Function         Bfn.  Coefficient  Atom+Function  
  ----- ------------  ---------------      ----- ------------  ---------------
   607     19.692521  36 C  s               318    -14.266815  19 C  py        
   217     13.185736  14 C  s               106    -10.897408   7 N  s         
   267    -10.186518  16 N  s               564     -9.122655  33 N  s         
   319      8.993687  19 C  pz              657     -8.343196  38 N  s         
   402     -8.173219  23 C  py              394      7.989417  23 C  s         

 Vector  204  Occ=0.000000D+00  E= 4.751999D-01
              MO Center=  1.1D-01, -4.6D-01, -2.2D-01, r^2= 2.1D+01
   Bfn.  Coefficient  Atom+Function         Bfn.  Coefficient  Atom+Function  
  ----- ------------  ---------------      ----- ------------  ---------------
   318     17.085382  19 C  py              148    -14.088944   9 C  py        
   427     11.326639  25 C  s               267     10.238406  16 N  s         
    13     -9.484129   2 C  s               514     -9.014154  31 C  s         
   460     -8.828401  27 H  s               319      7.824438  19 C  pz        
   360      7.604020  21 N  s               451     -7.523844  26 H  s         

 Vector  205  Occ=0.000000D+00  E= 4.830775D-01
              MO Center=  8.1D-01,  2.1D-01,  2.5D-01, r^2= 1.9D+01
   Bfn.  Coefficient  Atom+Function         Bfn.  Coefficient  Atom+Function  
  ----- ------------  ---------------      ----- ------------  ---------------
   514     17.742752  31 C  s               428    -14.088063  25 C  s         
   564    -11.046482  33 N  s               173    -10.324239  11 C  s         
   318    -10.225915  19 C  py              217      9.437416  14 C  s         
   148      8.988298   9 C  py              206      8.103032  13 H  s         
   360      7.314002  21 N  s               607      5.687862  36 C  s         

 Vector  206  Occ=0.000000D+00  E= 4.863133D-01
              MO Center= -3.3D-02,  8.2D-01,  7.6D-02, r^2= 2.1D+01
   Bfn.  Coefficient  Atom+Function         Bfn.  Coefficient  Atom+Function  
  ----- ------------  ---------------      ----- ------------  ---------------
   471     25.511513  28 C  s               318    -18.605938  19 C  py        
   106    -14.542733   7 N  s               403     11.421929  23 C  pz        
   384    -11.033339  22 H  s               217      9.414183  14 C  s         
   148      8.175282   9 C  py              147     -7.769818   9 C  px        
   174     -7.735125  11 C  s               435      6.869886  25 C  px        

 Vector  207  Occ=0.000000D+00  E= 4.891650D-01
              MO Center=  4.0D-01, -8.7D-01,  7.1D-02, r^2= 2.0D+01
   Bfn.  Coefficient  Atom+Function         Bfn.  Coefficient  Atom+Function  
  ----- ------------  ---------------      ----- ------------  ---------------
   318      9.761758  19 C  py              148     -7.210786   9 C  py        
    12     -6.196519   2 C  s               197     -6.045286  12 H  s         
   174      5.730352  11 C  s               360     -5.278593  21 N  s         
   242     -5.204263  15 O  s               394     -5.098295  23 C  s         
   217      5.060279  14 C  s               173      4.885303  11 C  s         

 Vector  208  Occ=0.000000D+00  E= 4.924383D-01
              MO Center=  7.6D-01,  9.0D-01,  1.3D-01, r^2= 2.0D+01
   Bfn.  Coefficient  Atom+Function         Bfn.  Coefficient  Atom+Function  
  ----- ------------  ---------------      ----- ------------  ---------------
   514     26.344839  31 C  s               607     23.981525  36 C  s         
   428    -18.198219  25 C  s               657    -16.045695  38 N  s         
   564    -15.347859  33 N  s               174    -12.709877  11 C  s         
    13     -7.764268   2 C  s               267      7.581784  16 N  s         
   173     -7.404853  11 C  s               460      7.256561  27 H  s         

 Vector  209  Occ=0.000000D+00  E= 4.970477D-01
              MO Center= -1.4D-01, -8.1D-01,  4.7D-03, r^2= 2.2D+01
   Bfn.  Coefficient  Atom+Function         Bfn.  Coefficient  Atom+Function  
  ----- ------------  ---------------      ----- ------------  ---------------
   514     23.144984  31 C  s               174     16.430288  11 C  s         
   564    -10.682590  33 N  s               471     -9.891247  28 C  s         
   428     -9.115003  25 C  s               148      7.773761   9 C  py        
   384     -7.749913  22 H  s               206     -7.064380  13 H  s         
   173      6.667499  11 C  s               319     -6.612314  19 C  pz        

 Vector  210  Occ=0.000000D+00  E= 4.989781D-01
              MO Center=  1.1D-01, -3.0D-01, -1.1D-01, r^2= 2.0D+01
   Bfn.  Coefficient  Atom+Function         Bfn.  Coefficient  Atom+Function  
  ----- ------------  ---------------      ----- ------------  ---------------
   174     17.959676  11 C  s               217    -14.245246  14 C  s         
   368     11.185944  21 N  py              471     -9.301663  28 C  s         
   657     -8.891556  38 N  s               267      8.677822  16 N  s         
   360     -8.303992  21 N  s                13      7.378264   2 C  s         
    63      7.248844   5 C  px              367      6.603736  21 N  px        

 Vector  211  Occ=0.000000D+00  E= 5.024456D-01
              MO Center=  7.4D-01,  4.4D-01,  2.6D-01, r^2= 2.0D+01
   Bfn.  Coefficient  Atom+Function         Bfn.  Coefficient  Atom+Function  
  ----- ------------  ---------------      ----- ------------  ---------------
   514     21.083670  31 C  s               564    -16.800588  33 N  s         
   106     12.906712   7 N  s               318     12.030543  19 C  py        
   317     10.681535  19 C  px              657    -10.026279  38 N  s         
   402      7.963784  23 C  py              428     -7.933458  25 C  s         
   113      7.388866   7 N  px              309     -7.364410  19 C  s         


 center of mass
 --------------
 x =   0.01061143 y =  -0.00336236 z =   0.01517643

 moments of inertia (a.u.)
 ------------------
        6960.847224997236           0.000000000000          -0.000000000001
           0.000000000000        4452.643912280767          -0.000000000000
          -0.000000000001          -0.000000000000        8735.527060985545

  Mulliken analysis of the total density
  --------------------------------------

    Atom       Charge   Shell Charges
 -----------   ------   -------------------------------------------------------
    1 H    1     0.98   0.77  0.25  0.01  0.03 -0.07
    2 C    6     6.38   2.01  0.66  0.40  0.14  2.07  0.95 -0.05  0.06  0.14
    3 H    1     0.76   0.76  0.03  0.01  0.03 -0.07
    4 H    1     0.81   0.77  0.09  0.01  0.03 -0.09
    5 C    6     5.21   2.01  0.68  0.07  0.06  1.89  0.37 -0.08  0.24 -0.03
    6 O    8     8.84   2.01  0.82  1.01  0.17  2.80  1.87  0.16  0.01 -0.01
    7 N    7     7.58   2.01  0.72  0.80 -0.15  2.45  1.45  0.22  0.05  0.02
    8 H    1     0.91   0.75  0.18 -0.02  0.06 -0.05
    9 C    6     6.13   2.01  0.66  0.09  0.03  1.99  1.10  0.00  0.14  0.11
   10 H    1     0.96   0.78  0.13  0.02  0.03  0.00
   11 C    6     6.67   2.01  0.66  0.88 -0.01  2.06  0.83 -0.02  0.09  0.18
   12 H    1     0.83   0.77  0.11 -0.01  0.03 -0.06
   13 H    1     0.82   0.77  0.11 -0.01  0.03 -0.09
   14 C    6     4.49   2.01  0.68  0.01  0.01  1.91 -0.25  0.03  0.24 -0.15
   15 O    8     8.82   2.01  0.82  1.03  0.19  2.80  1.84  0.13  0.02 -0.00
   16 N    7     7.18   2.01  0.72  0.76 -0.15  2.47  1.25  0.09  0.04 -0.02
   17 H    1     0.99   0.75  0.21 -0.01  0.05 -0.02
   18 H    1     0.92   0.75  0.18 -0.01  0.06 -0.05
   19 C    6     4.73   2.01  0.68  0.14  0.00  1.88  0.14  0.06  0.23 -0.43
   20 O    8     9.04   2.01  0.82  1.06  0.23  2.80  1.91  0.20  0.01  0.01
   21 N    7     7.27   2.01  0.72  0.89 -0.20  2.44  1.41 -0.11  0.05  0.05
   22 H    1     0.90   0.74  0.33 -0.04  0.06 -0.19
   23 C    6     6.43   2.01  0.66  0.14  0.01  1.99  1.27  0.15  0.14  0.07
   24 H    1     1.10   0.78  0.28  0.00  0.03  0.01
   25 C    6     5.83   2.01  0.66  0.28  0.08  2.02  0.56 -0.00  0.09  0.13
   26 H    1     1.04   0.78  0.31  0.01  0.03 -0.09
   27 H    1     0.97   0.78  0.25 -0.02  0.03 -0.07
   28 C    6     6.62   2.01  0.66  0.77 -0.01  2.05  0.86  0.01  0.09  0.18
   29 H    1     0.81   0.78  0.08 -0.03  0.03 -0.05
   30 H    1     0.83   0.78  0.10  0.01  0.03 -0.08
   31 C    6     4.84   2.01  0.68  0.08 -0.01  1.91 -0.04  0.05  0.24 -0.07
   32 O    8     8.90   2.01  0.81  1.03  0.20  2.81  1.87  0.15  0.02 -0.00
   33 N    7     7.14   2.01  0.72  0.77 -0.12  2.47  1.23  0.06  0.04 -0.04
   34 H    1     0.88   0.73  0.15 -0.02  0.06 -0.04
   35 H    1     0.93   0.74  0.18  0.01  0.06 -0.06
   36 C    6     4.35   2.01  0.68 -0.01  0.00  1.89 -0.19 -0.04  0.24 -0.22
   37 O    8     8.86   2.01  0.82  1.04  0.18  2.80  1.86  0.15  0.02 -0.00
   38 N    7     7.34   2.01  0.72  0.87 -0.10  2.46  1.26  0.08  0.04 -0.01
   39 H    1     1.00   0.76  0.22 -0.00  0.05 -0.03
   40 H    1     0.90   0.73  0.19 -0.01  0.06 -0.07

       Multipole analysis of the density wrt the origin
       ------------------------------------------------

     L   x y z        total         open         nuclear
     -   - - -        -----         ----         -------
     0   0 0 0     -0.000000      0.000000    160.000000

     1   1 0 0      1.404872      0.000000     -0.000000
     1   0 1 0     -0.495846      0.000000      0.000000
     1   0 0 1      0.152261      0.000000      0.000000

     2   2 0 0    -89.253050      0.000000   1721.101592
     2   1 1 0     -1.559308      0.000000      5.040290
     2   1 0 1     -3.911149      0.000000     -8.506281
     2   0 2 0    -98.680204      0.000000   3017.897466
     2   0 1 1     -6.979692      0.000000    -28.570813
     2   0 0 2    -91.683135      0.000000    752.258195


 Task  times  cpu:     6436.1s     wall:     6455.5s


                                NWChem Input Module
                                -------------------


 Summary of allocated global arrays
-----------------------------------
  No active global arrays


MA_summarize_allocated_blocks: starting scan ...
MA_summarize_allocated_blocks: scan completed: 0 heap blocks, 0 stack blocks
MA usage statistics:

	allocation statistics:
					      heap	     stack
					      ----	     -----
	current number of blocks	         0	         0
	maximum number of blocks	        16	        14
	current total bytes		         0	         0
	maximum total bytes		    148488	  31456168
	maximum total K-bytes		       149	     31457
	maximum total M-bytes		         1	        32


                                     CITATION
                                     --------
                Please cite the following reference when publishing
                           results obtained with NWChem:

          E. Apra, E. J. Bylaska, W. A. de Jong, N. Govind, K. Kowalski,
       T. P. Straatsma, M. Valiev, H. J. J. van Dam, Y. Alexeev, J. Anchell,
       V. Anisimov, F. W. Aquino, R. Atta-Fynn, J. Autschbach, N. P. Bauman,
     J. C. Becca, D. E. Bernholdt, K. Bhaskaran-Nair, S. Bogatko, P. Borowski,
         J. Boschen, J. Brabec, A. Bruner, E. Cauet, Y. Chen, G. N. Chuev,
      C. J. Cramer, J. Daily, M. J. O. Deegan, T. H. Dunning Jr., M. Dupuis,
   K. G. Dyall, G. I. Fann, S. A. Fischer, A. Fonari, H. Fruchtl, L. Gagliardi,
      J. Garza, N. Gawande, S. Ghosh, K. Glaesemann, A. W. Gotz, J. Hammond,
       V. Helms, E. D. Hermes, K. Hirao, S. Hirata, M. Jacquelin, L. Jensen,
   B. G. Johnson, H. Jonsson, R. A. Kendall, M. Klemm, R. Kobayashi, V. Konkov,
      S. Krishnamoorthy, M. Krishnan, Z. Lin, R. D. Lins, R. J. Littlefield,
      A. J. Logsdail, K. Lopata, W. Ma, A. V. Marenich, J. Martin del Campo,
   D. Mejia-Rodriguez, J. E. Moore, J. M. Mullin, T. Nakajima, D. R. Nascimento,
    J. A. Nichols, P. J. Nichols, J. Nieplocha, A. Otero-de-la-Roza, B. Palmer,
    A. Panyala, T. Pirojsirikul, B. Peng, R. Peverati, J. Pittner, L. Pollack,
   R. M. Richard, P. Sadayappan, G. C. Schatz, W. A. Shelton, D. W. Silverstein,
   D. M. A. Smith, T. A. Soares, D. Song, M. Swart, H. L. Taylor, G. S. Thomas,
            V. Tipparaju, D. G. Truhlar, K. Tsemekhman, T. Van Voorhis,
      A. Vazquez-Mayagoitia, P. Verma, O. Villa, A. Vishnu, K. D. Vogiatzis,
        D. Wang, J. H. Weare, M. J. Williamson, T. L. Windus, K. Wolinski,
        A. T. Wong, Q. Wu, C. Yang, Q. Yu, M. Zacharias, Z. Zhang, Y. Zhao,
                                and R. J. Harrison
                        "NWChem: Past, present, and future
                         J. Chem. Phys. 152, 184102 (2020)
                               doi:10.1063/5.0004997

                                      AUTHORS
                                      -------
  E. Apra, E. J. Bylaska, N. Govind, K. Kowalski, M. Valiev, D. Mejia-Rodriguez,
       A. Kunitsa, N. P. Bauman, A. Panyala, W. A. de Jong, T. P. Straatsma,
   H. J. J. van Dam, D. Wang, T. L. Windus, J. Hammond, J. Autschbach, A. Woods,
    K. Bhaskaran-Nair, J. Brabec, K. Lopata, S. A. Fischer, S. Krishnamoorthy,
     M. Jacquelin, W. Ma, M. Klemm, O. Villa, Y. Chen, V. Anisimov, F. Aquino,
     S. Hirata, M. T. Hackler, E. Hermes, L. Jensen, J. E. Moore, J. C. Becca,
      V. Konjkov, T. Risthaus, M. Malagoli, A. Marenich, A. Otero-de-la-Roza,
        J. Mullin, P. Nichols, R. Peverati, J. Pittner, Y. Zhao, P.-D. Fan,
        A. Fonari, M. J. Williamson, R. J. Harrison, J. R. Rehr, M. Dupuis,
     D. Silverstein, D. M. A. Smith, J. Nieplocha, V. Tipparaju, M. Krishnan,
     B. E. Van Kuiken, A. Vazquez-Mayagoitia, M. Swart, Q. Wu, T. Van Voorhis,
     A. A. Auer, M. Nooijen, L. D. Crosby, E. Brown, G. Cisneros, G. I. Fann,
   H. Fruchtl, J. Garza, K. Hirao, R. A. Kendall, J. A. Nichols, K. Tsemekhman,
    K. Wolinski, J. Anchell, D. E. Bernholdt, P. Borowski, T. Clark, D. Clerc,
   H. Dachsel, M. J. O. Deegan, K. Dyall, D. Elwood, E. Glendening, M. Gutowski,
   A. C. Hess, J. Jaffe, B. G. Johnson, J. Ju, R. Kobayashi, R. Kutteh, Z. Lin,
   R. Littlefield, X. Long, B. Meng, T. Nakajima, S. Niu, L. Pollack, M. Rosing,
   K. Glaesemann, G. Sandrone, M. Stave, H. Taylor, G. Thomas, J. H. van Lenthe,
                               A. T. Wong, Z. Zhang.

 Total times  cpu:     6436.2s     wall:     6456.0s
