export TMOUT=5400
export TMPDIR=/tmp
export PTMPDIR=/tmp/ptmp
 argument  1 = inputs/ASN_GLN_2.nw



============================== echo of input deck ==============================
start ASN_GLN_2
geometry
H          3.29000        2.28800        1.87600
C          3.08900        3.26700        1.44000
H          2.40300        3.16200        0.60200
H          4.02300        3.71000        1.09900
C          2.47400        4.15600        2.49400
O          2.30600        3.74400        3.63100
N          2.09600        5.37100        2.10900
H          2.21300        5.62100        1.13600
C          1.54500        6.40700        2.99700
H          2.20800        6.50300        3.85900
C          1.55500        7.73600        2.21900
H          1.29800        8.55500        2.89100
H          2.54800        7.93000        1.81300
C          0.55900        7.68500        1.07600
O          0.78800        7.03700        0.06500
N         -0.60400        8.25400        1.26000
H         -0.82500        8.65800        2.15300
H         -1.35000        7.94900        0.64200
C          0.12900        6.11200        3.55900
O         -0.43600        6.95700        4.25100
N         -0.46300        4.95600        3.24600
H          0.09800        4.28600        2.74600
C         -1.81000        4.52900        3.66000
H         -2.46200        5.40400        3.66500
C         -2.37600        3.52500        2.62600
H         -1.58200        2.85000        2.30000
H         -3.14800        2.91600        3.09700
C         -3.04400        4.17600        1.39900
H         -3.34200        3.38700        0.70900
H         -3.94900        4.68900        1.72900
C         -2.17900        5.17700        0.64000
O         -2.50900        6.34400        0.52100
N         -1.03100        4.78500        0.13000
H         -0.75900        3.82300        0.14800
H         -0.45700        5.52000       -0.27600
C         -1.81500        3.99500        5.11300
O         -2.27100        2.89600        5.40200
N         -1.27400        4.75400        6.05700
H         -0.90300        5.66200        5.81200
H         -1.25100        4.40500        7.00000
end

basis
 * library aug-cc-pvdz
end

echo

scf
 direct
end

task scf energy
================================================================================


                                         
                                         


             Northwest Computational Chemistry Package (NWChem) 7.2.0
             --------------------------------------------------------


                    Environmental Molecular Sciences Laboratory
                       Pacific Northwest National Laboratory
                                Richland, WA 99352

                              Copyright (c) 1994-2022
                       Pacific Northwest National Laboratory
                            Battelle Memorial Institute

             NWChem is an open-source computational chemistry package
                        distributed under the terms of the
                      Educational Community License (ECL) 2.0
             A copy of the license is included with this distribution
                              in the LICENSE.TXT file

                                  ACKNOWLEDGMENT
                                  --------------

            This software and its documentation were developed at the
            EMSL at Pacific Northwest National Laboratory, a multiprogram
            national laboratory, operated for the U.S. Department of Energy
            by Battelle under Contract Number DE-AC05-76RL01830. Support
            for this work was provided by the Department of Energy Office
            of Biological and Environmental Research, Office of Basic
            Energy Sciences, and the Office of Advanced Scientific Computing.


           Job information
           ---------------

    hostname        = nova21-swift-3
    program         = /opt/rit/el9/20230413/app/linux-rhel9-x86_64_v3/gcc-11.2.1/nwchem-7.2.0-oxtctbuhfuzyfaoziquq6bki22grib3g/bin/nwchem
    date            = Thu Jul 10 05:27:41 2025

    compiled        = Wed_May_17_23:46:39_2023
    source          = /tmp/root/spack-stage/spack-stage-nwchem-7.2.0-oxtctbuhfuzyfaoziquq6bki22grib3g/spack-src
    nwchem branch   = 7.2.0
    nwchem revision = d0d141fd
    ga revision     = 5.8.0
    use scalapack   = T
    input           = inputs/ASN_GLN_2.nw
    prefix          = ASN_GLN_2.
    data base       = ./ASN_GLN_2.db
    status          = startup
    nproc           =        8
    time left       =     -1s



           Memory information
           ------------------

    heap     =   26214394 doubles =    200.0 Mbytes
    stack    =   26214399 doubles =    200.0 Mbytes
    global   =   52428800 doubles =    400.0 Mbytes (distinct from heap & stack)
    total    =  104857593 doubles =    800.0 Mbytes
    verify   = yes
    hardfail = no 


           Directory information
           ---------------------

  0 permanent = .
  0 scratch   = .




                                NWChem Input Module
                                -------------------



 Scaling coordinates for geometry "geometry" by  1.889725989
 (inverse scale =  0.529177249)

 C1  symmetry detected

          ------
          auto-z
          ------
  no constraints, skipping    0.0000000000000000     
  no constraints, skipping    0.0000000000000000     


                             Geometry "geometry" -> ""
                             -------------------------

 Output coordinates in angstroms (scale by  1.889725989 to convert to a.u.)

  No.       Tag          Charge          X              Y              Z
 ---- ---------------- ---------- -------------- -------------- --------------
    1 H                    1.0000     3.45508429     0.93224932    -3.04945955
    2 C                    6.0000     2.77749142     1.59136973    -2.50598352
    3 H                    1.0000     1.83435096     1.67177385    -3.04253386
    4 H                    1.0000     3.23135999     2.57589318    -2.40798911
    5 C                    6.0000     2.53431533     1.01809049    -1.13060056
    6 O                    8.0000     3.09003182    -0.01143683    -0.78133033
    7 N                    7.0000     1.66688090     1.66234534    -0.35611545
    8 H                    1.0000     1.20069603     2.47556007    -0.73594630
    9 C                    6.0000     1.34827953     1.30655104     1.03576982
   10 H                    1.0000     2.28744747     1.19296742     1.58064718
   11 C                    6.0000     0.56525247     2.48371473     1.64632635
   12 H                    1.0000     0.44341716     2.32517043     2.71796708
   13 H                    1.0000     1.11011661     3.41686701     1.50185878
   14 C                    6.0000    -0.79809840     2.60536086     0.99245891
   15 O                    8.0000    -0.91995951     3.05007337    -0.13972776
   16 N                    7.0000    -1.82312895     2.10334758     1.63080133
   17 H                    1.0000    -1.67963374     1.61386196     2.49643344
   18 H                    1.0000    -2.64458603     1.90728656     1.06667959
   19 C                    6.0000     0.56842680    -0.02270095     1.21699853
   20 O                    8.0000     0.19861527    -0.35949688     2.34035152
   21 N                    7.0000     0.28223684    -0.75674477     0.13808983
   22 H                    1.0000     0.69150137    -0.45501069    -0.73086362
   23 C                    6.0000    -0.47538761    -2.01922787     0.12148826
   24 H                    1.0000    -1.26762715    -1.95497444     0.86913926
   25 C                    6.0000    -1.14622032    -2.20285659    -1.26191044
   26 H                    1.0000    -0.45946922    -1.87890379    -2.04661707
   27 H                    1.0000    -1.35336799    -3.26048842    -1.42686722
   28 C                    6.0000    -2.49806964    -1.47969221    -1.42031091
   29 H                    1.0000    -2.84492017    -1.61661937    -2.44421064
   30 H                    1.0000    -3.22381578    -1.95318419    -0.75684132
   31 C                    6.0000    -2.47796238     0.01459404    -1.11533337
   32 O                    8.0000    -3.15918001     0.49333349    -0.22555752
   33 N                    7.0000    -1.68140839     0.80512475    -1.80252399
   34 H                    1.0000    -1.15983526     0.46132811    -2.58323990
   35 H                    1.0000    -1.64080796     1.77074976    -1.48557457
   36 C                    6.0000     0.40729906    -3.21697479     0.54887166
   37 O                    8.0000     0.51453497    -4.22530644    -0.13744148
   38 N                    7.0000     1.08724335    -3.11556698     1.68345979
   39 H                    1.0000     0.99087017    -2.28186150     2.24717725
   40 H                    1.0000     1.68215518    -3.87891122     1.95725620

      Atomic Mass 
      ----------- 

      H                  1.007825
      C                 12.000000
      O                 15.994910
      N                 14.003070


 Effective nuclear repulsion energy (a.u.)    1917.3086554016

            Nuclear Dipole moment (a.u.) 
            ----------------------------
        X                 Y               Z
 ---------------- ---------------- ----------------
    -0.0000000000    -0.0000000000    -0.0000000000



                                Z-matrix (autoz)
                                -------- 

 Units are Angstrom for bonds and degrees for angles

      Type          Name      I     J     K     L     M      Value
      ----------- --------  ----- ----- ----- ----- ----- ----------
    1 Stretch                  1     2                       1.09038
    2 Stretch                  2     3                       1.08806
    3 Stretch                  2     4                       1.08852
    4 Stretch                  2     5                       1.50979
    5 Stretch                  5     6                       1.22096
    6 Stretch                  5     7                       1.32941
    7 Stretch                  7     8                       1.01139
    8 Stretch                  7     9                       1.47154
    9 Stretch                  9    10                       1.09171
   10 Stretch                  9    11                       1.54001
   11 Stretch                  9    19                       1.55175
   12 Stretch                 11    12                       1.09013
   13 Stretch                 11    13                       1.09019
   14 Stretch                 11    14                       1.51693
   15 Stretch                 14    15                       1.22248
   16 Stretch                 14    16                       1.30774
   17 Stretch                 16    17                       1.00474
   18 Stretch                 16    18                       1.01561
   19 Stretch                 19    20                       1.22968
   20 Stretch                 19    21                       1.33595
   21 Stretch                 21    22                       1.00679
   22 Stretch                 21    23                       1.47246
   23 Stretch                 23    24                       1.09122
   24 Stretch                 23    25                       1.54840
   25 Stretch                 23    36                       1.54803
   26 Stretch                 25    26                       1.09194
   27 Stretch                 25    27                       1.09028
   28 Stretch                 25    28                       1.54128
   29 Stretch                 28    29                       1.08969
   30 Stretch                 28    30                       1.09137
   31 Stretch                 28    31                       1.52522
   32 Stretch                 31    32                       1.21859
   33 Stretch                 31    33                       1.31593
   34 Stretch                 33    34                       0.99988
   35 Stretch                 33    35                       1.01712
   36 Stretch                 36    37                       1.22444
   37 Stretch                 36    38                       1.32661
   38 Stretch                 38    39                       1.01100
   39 Stretch                 38    40                       1.00577
   40 Bend                     1     2     3               109.72717
   41 Bend                     1     2     4               109.42014
   42 Bend                     1     2     5               108.94242
   43 Bend                     2     5     6               120.49495
   44 Bend                     2     5     7               116.85903
   45 Bend                     3     2     4               109.81482
   46 Bend                     3     2     5               109.73517
   47 Bend                     4     2     5               109.18242
   48 Bend                     5     7     8               118.13991
   49 Bend                     5     7     9               125.10941
   50 Bend                     6     5     7               122.61311
   51 Bend                     7     9    10               108.11869
   52 Bend                     7     9    11               107.47386
   53 Bend                     7     9    19               115.23881
   54 Bend                     8     7     9               116.73296
   55 Bend                     9    11    12               109.59650
   56 Bend                     9    11    13               110.34191
   57 Bend                     9    11    14               110.32735
   58 Bend                     9    19    20               119.50167
   59 Bend                     9    19    21               118.94772
   60 Bend                    10     9    11               108.60628
   61 Bend                    10     9    19               106.55452
   62 Bend                    11     9    19               110.66797
   63 Bend                    11    14    15               121.19634
   64 Bend                    11    14    16               117.59853
   65 Bend                    12    11    13               108.09601
   66 Bend                    12    11    14               109.56955
   67 Bend                    13    11    14               108.87026
   68 Bend                    14    16    17               119.71040
   69 Bend                    14    16    18               115.90961
   70 Bend                    15    14    16               120.90288
   71 Bend                    17    16    18               120.00096
   72 Bend                    19    21    22               116.44113
   73 Bend                    19    21    23               126.18748
   74 Bend                    20    19    21               121.52365
   75 Bend                    21    23    24               108.38171
   76 Bend                    21    23    25               109.55258
   77 Bend                    21    23    36               111.52404
   78 Bend                    22    21    23               117.15442
   79 Bend                    23    25    26               109.53572
   80 Bend                    23    25    27               109.42252
   81 Bend                    23    25    28               114.59317
   82 Bend                    23    36    37               122.16471
   83 Bend                    23    36    38               117.98418
   84 Bend                    24    23    25               107.73322
   85 Bend                    24    23    36               105.68653
   86 Bend                    25    23    36               113.69957
   87 Bend                    25    28    29               108.46889
   88 Bend                    25    28    30               108.49462
   89 Bend                    25    28    31               115.31322
   90 Bend                    26    25    27               107.37100
   91 Bend                    26    25    28               109.78994
   92 Bend                    27    25    28               105.84015
   93 Bend                    28    31    32               121.56924
   94 Bend                    28    31    33               119.47973
   95 Bend                    29    28    30               107.76035
   96 Bend                    29    28    31               108.37216
   97 Bend                    30    28    31               108.19541
   98 Bend                    31    33    34               121.12763
   99 Bend                    31    33    35               115.57924
  100 Bend                    32    31    33               118.92597
  101 Bend                    34    33    35               123.29300
  102 Bend                    36    38    39               119.40971
  103 Bend                    36    38    40               118.55305
  104 Bend                    37    36    38               119.83078
  105 Bend                    39    38    40               122.03658
  106 Torsion                  1     2     5     6           1.58014
  107 Torsion                  1     2     5     7        -176.38699
  108 Torsion                  2     5     7     8           1.84476
  109 Torsion                  2     5     7     9        -176.56956
  110 Torsion                  3     2     5     6         121.72973
  111 Torsion                  3     2     5     7         -56.23740
  112 Torsion                  4     2     5     6        -117.86521
  113 Torsion                  4     2     5     7          64.16766
  114 Torsion                  5     7     9    10          49.99269
  115 Torsion                  5     7     9    11         167.05478
  116 Torsion                  5     7     9    19         -69.06413
  117 Torsion                  6     5     7     8        -176.07567
  118 Torsion                  6     5     7     9           5.51002
  119 Torsion                  7     9    11    12        -171.38793
  120 Torsion                  7     9    11    13         -52.46534
  121 Torsion                  7     9    11    14          67.87863
  122 Torsion                  7     9    19    20        -176.10434
  123 Torsion                  7     9    19    21           2.03616
  124 Torsion                  8     7     9    10        -128.44172
  125 Torsion                  8     7     9    11         -11.37962
  126 Torsion                  8     7     9    19         112.50146
  127 Torsion                  9    11    14    15         -74.20305
  128 Torsion                  9    11    14    16          99.53756
  129 Torsion                  9    19    21    22           7.20138
  130 Torsion                  9    19    21    23        -178.33086
  131 Torsion                 10     9    11    12         -54.64482
  132 Torsion                 10     9    11    13          64.27777
  133 Torsion                 10     9    11    14        -175.37826
  134 Torsion                 10     9    19    20          63.97537
  135 Torsion                 10     9    19    21        -117.88413
  136 Torsion                 11     9    19    20         -53.92189
  137 Torsion                 11     9    19    21         124.21861
  138 Torsion                 11    14    16    17          -3.34925
  139 Torsion                 11    14    16    18        -159.87346
  140 Torsion                 12    11     9    19          61.99104
  141 Torsion                 12    11    14    15         165.04739
  142 Torsion                 12    11    14    16         -21.21201
  143 Torsion                 13    11     9    19        -179.08637
  144 Torsion                 13    11    14    15          47.02087
  145 Torsion                 13    11    14    16        -139.23852
  146 Torsion                 14    11     9    19         -58.74241
  147 Torsion                 15    14    16    17         170.41071
  148 Torsion                 15    14    16    18          13.88650
  149 Torsion                 19    21    23    24          36.41691
  150 Torsion                 19    21    23    25         153.71501
  151 Torsion                 19    21    23    36         -79.51656
  152 Torsion                 20    19    21    22        -174.69721
  153 Torsion                 20    19    21    23          -0.22945
  154 Torsion                 21    23    25    26          39.85259
  155 Torsion                 21    23    25    27         157.30549
  156 Torsion                 21    23    25    28         -84.02999
  157 Torsion                 21    23    36    37        -126.82607
  158 Torsion                 21    23    36    38          51.52985
  159 Torsion                 22    21    23    24        -149.15034
  160 Torsion                 22    21    23    25         -31.85224
  161 Torsion                 22    21    23    36          94.91619
  162 Torsion                 23    25    28    29         176.10696
  163 Torsion                 23    25    28    30         -67.09600
  164 Torsion                 23    25    28    31          54.40036
  165 Torsion                 23    36    38    39           1.86652
  166 Torsion                 23    36    38    40        -178.42278
  167 Torsion                 24    23    25    26         157.55682
  168 Torsion                 24    23    25    27         -84.99028
  169 Torsion                 24    23    25    28          33.67423
  170 Torsion                 24    23    36    37         115.60219
  171 Torsion                 24    23    36    38         -66.04189
  172 Torsion                 25    23    36    37          -2.35303
  173 Torsion                 25    23    36    38         176.00289
  174 Torsion                 25    28    31    32        -119.20101
  175 Torsion                 25    28    31    33          58.95822
  176 Torsion                 26    25    23    36         -85.67534
  177 Torsion                 26    25    28    29          52.36000
  178 Torsion                 26    25    28    30         169.15703
  179 Torsion                 26    25    28    31         -69.34660
  180 Torsion                 27    25    23    36          31.77756
  181 Torsion                 27    25    28    29         -63.22908
  182 Torsion                 27    25    28    30          53.56796
  183 Torsion                 27    25    28    31         175.06432
  184 Torsion                 28    25    23    36         150.44208
  185 Torsion                 28    31    33    34           6.42166
  186 Torsion                 28    31    33    35        -173.70443
  187 Torsion                 29    28    31    32         119.04029
  188 Torsion                 29    28    31    33         -62.80048
  189 Torsion                 30    28    31    32           2.45677
  190 Torsion                 30    28    31    33        -179.38400
  191 Torsion                 32    31    33    34        -175.37021
  192 Torsion                 32    31    33    35           4.50369
  193 Torsion                 37    36    38    39        -179.73780
  194 Torsion                 37    36    38    40          -0.02710


            XYZ format geometry
            -------------------
    40
 geometry
 H                     3.45508429     0.93224932    -3.04945955
 C                     2.77749142     1.59136973    -2.50598352
 H                     1.83435096     1.67177385    -3.04253386
 H                     3.23135999     2.57589318    -2.40798911
 C                     2.53431533     1.01809049    -1.13060056
 O                     3.09003182    -0.01143683    -0.78133033
 N                     1.66688090     1.66234534    -0.35611545
 H                     1.20069603     2.47556007    -0.73594630
 C                     1.34827953     1.30655104     1.03576982
 H                     2.28744747     1.19296742     1.58064718
 C                     0.56525247     2.48371473     1.64632635
 H                     0.44341716     2.32517043     2.71796708
 H                     1.11011661     3.41686701     1.50185878
 C                    -0.79809840     2.60536086     0.99245891
 O                    -0.91995951     3.05007337    -0.13972776
 N                    -1.82312895     2.10334758     1.63080133
 H                    -1.67963374     1.61386196     2.49643344
 H                    -2.64458603     1.90728656     1.06667959
 C                     0.56842680    -0.02270095     1.21699853
 O                     0.19861527    -0.35949688     2.34035152
 N                     0.28223684    -0.75674477     0.13808983
 H                     0.69150137    -0.45501069    -0.73086362
 C                    -0.47538761    -2.01922787     0.12148826
 H                    -1.26762715    -1.95497444     0.86913926
 C                    -1.14622032    -2.20285659    -1.26191044
 H                    -0.45946922    -1.87890379    -2.04661707
 H                    -1.35336799    -3.26048842    -1.42686722
 C                    -2.49806964    -1.47969221    -1.42031091
 H                    -2.84492017    -1.61661937    -2.44421064
 H                    -3.22381578    -1.95318419    -0.75684132
 C                    -2.47796238     0.01459404    -1.11533337
 O                    -3.15918001     0.49333349    -0.22555752
 N                    -1.68140839     0.80512475    -1.80252399
 H                    -1.15983526     0.46132811    -2.58323990
 H                    -1.64080796     1.77074976    -1.48557457
 C                     0.40729906    -3.21697479     0.54887166
 O                     0.51453497    -4.22530644    -0.13744148
 N                     1.08724335    -3.11556698     1.68345979
 H                     0.99087017    -2.28186150     2.24717725
 H                     1.68215518    -3.87891122     1.95725620

 ==============================================================================
                                internuclear distances
 ------------------------------------------------------------------------------
       center one      |      center two      | atomic units |  angstroms
 ------------------------------------------------------------------------------
    2 C                |   1 H                |     2.06053  |     1.09038
    3 H                |   2 C                |     2.05613  |     1.08806
    4 H                |   2 C                |     2.05701  |     1.08852
    5 C                |   2 C                |     2.85309  |     1.50979
    6 O                |   5 C                |     2.30727  |     1.22096
    7 N                |   5 C                |     2.51222  |     1.32941
    8 H                |   7 N                |     1.91126  |     1.01139
    9 C                |   7 N                |     2.78081  |     1.47154
   10 H                |   9 C                |     2.06303  |     1.09171
   11 C                |   9 C                |     2.91019  |     1.54001
   12 H                |  11 C                |     2.06006  |     1.09013
   13 H                |  11 C                |     2.06017  |     1.09019
   14 C                |  11 C                |     2.86658  |     1.51693
   15 O                |  14 C                |     2.31016  |     1.22248
   16 N                |  14 C                |     2.47127  |     1.30774
   17 H                |  16 N                |     1.89869  |     1.00474
   18 H                |  16 N                |     1.91923  |     1.01561
   19 C                |   9 C                |     2.93238  |     1.55175
   20 O                |  19 C                |     2.32376  |     1.22968
   21 N                |  19 C                |     2.52458  |     1.33595
   22 H                |  21 N                |     1.90255  |     1.00679
   23 C                |  21 N                |     2.78254  |     1.47246
   24 H                |  23 C                |     2.06210  |     1.09122
   25 C                |  23 C                |     2.92604  |     1.54840
   26 H                |  25 C                |     2.06347  |     1.09194
   27 H                |  25 C                |     2.06033  |     1.09028
   28 C                |  25 C                |     2.91260  |     1.54128
   29 H                |  28 C                |     2.05922  |     1.08969
   30 H                |  28 C                |     2.06240  |     1.09137
   31 C                |  28 C                |     2.88225  |     1.52522
   32 O                |  31 C                |     2.30279  |     1.21859
   33 N                |  31 C                |     2.48674  |     1.31593
   34 H                |  33 N                |     1.88949  |     0.99988
   35 H                |  33 N                |     1.92208  |     1.01712
   36 C                |  23 C                |     2.92535  |     1.54803
   37 O                |  36 C                |     2.31386  |     1.22444
   38 N                |  36 C                |     2.50693  |     1.32661
   39 H                |  38 N                |     1.91052  |     1.01100
   40 H                |  38 N                |     1.90064  |     1.00577
 ------------------------------------------------------------------------------
                         number of included internuclear distances:         39
 ==============================================================================



 ==============================================================================
                                 internuclear angles
 ------------------------------------------------------------------------------
        center 1       |       center 2       |       center 3       |  degrees
 ------------------------------------------------------------------------------
    1 H                |   2 C                |   3 H                |   109.73
    1 H                |   2 C                |   4 H                |   109.42
    1 H                |   2 C                |   5 C                |   108.94
    3 H                |   2 C                |   4 H                |   109.81
    3 H                |   2 C                |   5 C                |   109.74
    4 H                |   2 C                |   5 C                |   109.18
    2 C                |   5 C                |   6 O                |   120.49
    2 C                |   5 C                |   7 N                |   116.86
    6 O                |   5 C                |   7 N                |   122.61
    5 C                |   7 N                |   8 H                |   118.14
    5 C                |   7 N                |   9 C                |   125.11
    8 H                |   7 N                |   9 C                |   116.73
    7 N                |   9 C                |  10 H                |   108.12
    7 N                |   9 C                |  11 C                |   107.47
    7 N                |   9 C                |  19 C                |   115.24
   10 H                |   9 C                |  11 C                |   108.61
   10 H                |   9 C                |  19 C                |   106.55
   11 C                |   9 C                |  19 C                |   110.67
    9 C                |  11 C                |  12 H                |   109.60
    9 C                |  11 C                |  13 H                |   110.34
    9 C                |  11 C                |  14 C                |   110.33
   12 H                |  11 C                |  13 H                |   108.10
   12 H                |  11 C                |  14 C                |   109.57
   13 H                |  11 C                |  14 C                |   108.87
   11 C                |  14 C                |  15 O                |   121.20
   11 C                |  14 C                |  16 N                |   117.60
   15 O                |  14 C                |  16 N                |   120.90
   14 C                |  16 N                |  17 H                |   119.71
   14 C                |  16 N                |  18 H                |   115.91
   17 H                |  16 N                |  18 H                |   120.00
    9 C                |  19 C                |  20 O                |   119.50
    9 C                |  19 C                |  21 N                |   118.95
   20 O                |  19 C                |  21 N                |   121.52
   19 C                |  21 N                |  22 H                |   116.44
   19 C                |  21 N                |  23 C                |   126.19
   22 H                |  21 N                |  23 C                |   117.15
   21 N                |  23 C                |  24 H                |   108.38
   21 N                |  23 C                |  25 C                |   109.55
   21 N                |  23 C                |  36 C                |   111.52
   24 H                |  23 C                |  25 C                |   107.73
   24 H                |  23 C                |  36 C                |   105.69
   25 C                |  23 C                |  36 C                |   113.70
   23 C                |  25 C                |  26 H                |   109.54
   23 C                |  25 C                |  27 H                |   109.42
   23 C                |  25 C                |  28 C                |   114.59
   26 H                |  25 C                |  27 H                |   107.37
   26 H                |  25 C                |  28 C                |   109.79
   27 H                |  25 C                |  28 C                |   105.84
   25 C                |  28 C                |  29 H                |   108.47
   25 C                |  28 C                |  30 H                |   108.49
   25 C                |  28 C                |  31 C                |   115.31
   29 H                |  28 C                |  30 H                |   107.76
   29 H                |  28 C                |  31 C                |   108.37
   30 H                |  28 C                |  31 C                |   108.20
   28 C                |  31 C                |  32 O                |   121.57
   28 C                |  31 C                |  33 N                |   119.48
   32 O                |  31 C                |  33 N                |   118.93
   31 C                |  33 N                |  34 H                |   121.13
   31 C                |  33 N                |  35 H                |   115.58
   34 H                |  33 N                |  35 H                |   123.29
   23 C                |  36 C                |  37 O                |   122.16
   23 C                |  36 C                |  38 N                |   117.98
   37 O                |  36 C                |  38 N                |   119.83
   36 C                |  38 N                |  39 H                |   119.41
   36 C                |  38 N                |  40 H                |   118.55
   39 H                |  38 N                |  40 H                |   122.04
 ------------------------------------------------------------------------------
                            number of included internuclear angles:         66
 ==============================================================================



  library name resolved from: environment
  library file name is: </opt/rit/el9/20230413/app/linux-rhel9-x86_64_v3/gcc-11.2.1/nwchem-7.2.0-oxtctbuhfuzyfaoziquq6bki22grib3g/share/nwchem/libraries/>
  


 Summary of "ao basis" -> "" (cartesian)
 ------------------------------------------------------------------------------
       Tag                 Description            Shells   Functions and Types
 ---------------- ------------------------------  ------  ---------------------
 *                        aug-cc-pvdz                 on all atoms 


                      Basis "ao basis" -> "ao basis" (cartesian)
                      -----
  H (Hydrogen)
  ------------
            Exponent  Coefficients 
       -------------- ---------------------------------------------------------
  1 S  1.30100000E+01  0.019685
  1 S  1.96200000E+00  0.137977
  1 S  4.44600000E-01  0.478148

  2 S  1.22000000E-01  1.000000

  3 S  2.97400000E-02  1.000000

  4 P  7.27000000E-01  1.000000

  5 P  1.41000000E-01  1.000000

  C (Carbon)
  ----------
            Exponent  Coefficients 
       -------------- ---------------------------------------------------------
  1 S  6.66500000E+03  0.000692
  1 S  1.00000000E+03  0.005329
  1 S  2.28000000E+02  0.027077
  1 S  6.47100000E+01  0.101718
  1 S  2.10600000E+01  0.274740
  1 S  7.49500000E+00  0.448564
  1 S  2.79700000E+00  0.285074
  1 S  5.21500000E-01  0.015204

  2 S  6.66500000E+03 -0.000146
  2 S  1.00000000E+03 -0.001154
  2 S  2.28000000E+02 -0.005725
  2 S  6.47100000E+01 -0.023312
  2 S  2.10600000E+01 -0.063955
  2 S  7.49500000E+00 -0.149981
  2 S  2.79700000E+00 -0.127262
  2 S  5.21500000E-01  0.544529

  3 S  1.59600000E-01  1.000000

  4 S  4.69000000E-02  1.000000

  5 P  9.43900000E+00  0.038109
  5 P  2.00200000E+00  0.209480
  5 P  5.45600000E-01  0.508557

  6 P  1.51700000E-01  1.000000

  7 P  4.04100000E-02  1.000000

  8 D  5.50000000E-01  1.000000

  9 D  1.51000000E-01  1.000000

  O (Oxygen)
  ----------
            Exponent  Coefficients 
       -------------- ---------------------------------------------------------
  1 S  1.17200000E+04  0.000710
  1 S  1.75900000E+03  0.005470
  1 S  4.00800000E+02  0.027837
  1 S  1.13700000E+02  0.104800
  1 S  3.70300000E+01  0.283062
  1 S  1.32700000E+01  0.448719
  1 S  5.02500000E+00  0.270952
  1 S  1.01300000E+00  0.015458

  2 S  1.17200000E+04 -0.000160
  2 S  1.75900000E+03 -0.001263
  2 S  4.00800000E+02 -0.006267
  2 S  1.13700000E+02 -0.025716
  2 S  3.70300000E+01 -0.070924
  2 S  1.32700000E+01 -0.165411
  2 S  5.02500000E+00 -0.116955
  2 S  1.01300000E+00  0.557368

  3 S  3.02300000E-01  1.000000

  4 S  7.89600000E-02  1.000000

  5 P  1.77000000E+01  0.043018
  5 P  3.85400000E+00  0.228913
  5 P  1.04600000E+00  0.508728

  6 P  2.75300000E-01  1.000000

  7 P  6.85600000E-02  1.000000

  8 D  1.18500000E+00  1.000000

  9 D  3.32000000E-01  1.000000

  N (Nitrogen)
  ------------
            Exponent  Coefficients 
       -------------- ---------------------------------------------------------
  1 S  9.04600000E+03  0.000700
  1 S  1.35700000E+03  0.005389
  1 S  3.09300000E+02  0.027406
  1 S  8.77300000E+01  0.103207
  1 S  2.85600000E+01  0.278723
  1 S  1.02100000E+01  0.448540
  1 S  3.83800000E+00  0.278238
  1 S  7.46600000E-01  0.015440

  2 S  9.04600000E+03 -0.000153
  2 S  1.35700000E+03 -0.001208
  2 S  3.09300000E+02 -0.005992
  2 S  8.77300000E+01 -0.024544
  2 S  2.85600000E+01 -0.067459
  2 S  1.02100000E+01 -0.158078
  2 S  3.83800000E+00 -0.121831
  2 S  7.46600000E-01  0.549003

  3 S  2.24800000E-01  1.000000

  4 S  6.12400000E-02  1.000000

  5 P  1.35500000E+01  0.039919
  5 P  2.91700000E+00  0.217169
  5 P  7.97300000E-01  0.510319

  6 P  2.18500000E-01  1.000000

  7 P  5.61100000E-02  1.000000

  8 D  8.17000000E-01  1.000000

  9 D  2.30000000E-01  1.000000



 Summary of "ao basis" -> "ao basis" (cartesian)
 ------------------------------------------------------------------------------
       Tag                 Description            Shells   Functions and Types
 ---------------- ------------------------------  ------  ---------------------
 H                        aug-cc-pvdz                5        9   3s2p
 C                        aug-cc-pvdz                9       25   4s3p2d
 O                        aug-cc-pvdz                9       25   4s3p2d
 N                        aug-cc-pvdz                9       25   4s3p2d


                                 NWChem SCF Module
                                 -----------------



  ao basis        = "ao basis"
  functions       =   696
  atoms           =    40
  closed shells   =    80
  open shells     =     0
  charge          =   0.00
  wavefunction    = RHF 
  input vectors   = atomic
  output vectors  = ./ASN_GLN_2.movecs
  use symmetry    = F
  symmetry adapt  = F


 Summary of "ao basis" -> "ao basis" (cartesian)
 ------------------------------------------------------------------------------
       Tag                 Description            Shells   Functions and Types
 ---------------- ------------------------------  ------  ---------------------
 H                        aug-cc-pvdz                5        9   3s2p
 C                        aug-cc-pvdz                9       25   4s3p2d
 O                        aug-cc-pvdz                9       25   4s3p2d
 N                        aug-cc-pvdz                9       25   4s3p2d



 Forming initial guess at       0.9s


 !! The overlap matrix has   6 vectors deemed linearly dependent with
    eigenvalues:
 2.05D-06 3.59D-06 5.53D-06 6.88D-06 7.71D-06 9.20D-06


      Superposition of Atomic Density Guess
      -------------------------------------

 Sum of atomic energies:       -1069.17223035

      Non-variational initial energy
      ------------------------------

 Total energy =   -1082.660320
 1-e energy   =   -5269.092427
 2-e energy   =    2269.123452
 HOMO         =      -0.305750
 LUMO         =       0.007555


 Starting SCF solution at     403.7s



 ----------------------------------------------
         Quadratically convergent ROHF

 Convergence threshold     :          1.000E-04
 Maximum no. of iterations :           30
 Final Fock-matrix accuracy:          1.000E-10
 ----------------------------------------------


              iter       energy          gnorm     gmax       time
             ----- ------------------- --------- --------- --------
                 1    -1073.9132716281  2.95D+00  1.87D-01    814.5
                 2    -1074.3631807448  9.44D-01  3.84D-02   1638.6
                 3    -1074.4418456243  7.73D-02  4.47D-03   2853.2
                 4    -1074.4427404251  4.93D-03  3.95D-04   4477.9
                 5    -1074.4427449399  1.09D-05  8.71D-07   7293.1


       Final RHF  results 
       ------------------ 

         Total SCF energy =  -1074.442744939916
      One-electron energy =  -5282.950761702681
      Two-electron energy =   2291.199361361170
 Nuclear repulsion energy =   1917.308655401595

        Time for solution =   6891.0s


             Final eigenvalues
             -----------------

              1      
    1  -20.5516
    2  -20.5425
    3  -20.5410
    4  -20.5304
    5  -20.5214
    6  -15.6170
    7  -15.6167
    8  -15.5927
    9  -15.5924
   10  -15.5816
   11  -11.3845
   12  -11.3717
   13  -11.3701
   14  -11.3609
   15  -11.3549
   16  -11.3299
   17  -11.3096
   18  -11.2776
   19  -11.2619
   20  -11.2595
   21  -11.2590
   22   -1.4175
   23   -1.4100
   24   -1.4062
   25   -1.4004
   26   -1.3825
   27   -1.2733
   28   -1.2568
   29   -1.2364
   30   -1.2270
   31   -1.2102
   32   -1.0998
   33   -1.0867
   34   -1.0187
   35   -1.0016
   36   -0.9390
   37   -0.8854
   38   -0.8407
   39   -0.8209
   40   -0.8123
   41   -0.7987
   42   -0.7905
   43   -0.7531
   44   -0.7453
   45   -0.7415
   46   -0.7317
   47   -0.7087
   48   -0.6979
   49   -0.6860
   50   -0.6780
   51   -0.6663
   52   -0.6601
   53   -0.6426
   54   -0.6351
   55   -0.6230
   56   -0.6150
   57   -0.6046
   58   -0.6004
   59   -0.5942
   60   -0.5903
   61   -0.5835
   62   -0.5785
   63   -0.5660
   64   -0.5616
   65   -0.5493
   66   -0.5443
   67   -0.5368
   68   -0.5320
   69   -0.5156
   70   -0.5095
   71   -0.4647
   72   -0.4537
   73   -0.4480
   74   -0.4395
   75   -0.4312
   76   -0.4262
   77   -0.4113
   78   -0.4105
   79   -0.4035
   80   -0.3946
   81    0.0231
   82    0.0303
   83    0.0378
   84    0.0445
   85    0.0486
   86    0.0496
   87    0.0532
   88    0.0603
   89    0.0641
   90    0.0665

                       ROHF Final Molecular Orbital Analysis
                       -------------------------------------

 Vector   22  Occ=2.000000D+00  E=-1.417475D+00
              MO Center=  4.9D-01,  4.8D-01,  9.4D-01, r^2= 5.0D+00
   Bfn.  Coefficient  Atom+Function         Bfn.  Coefficient  Atom+Function  
  ----- ------------  ---------------      ----- ------------  ---------------
   334      0.286868  20 O  s               333      0.262821  20 O  s         
   308      0.190691  19 C  s               241      0.159233  15 O  s         
   240      0.152940  15 O  s         

 Vector   23  Occ=2.000000D+00  E=-1.410015D+00
              MO Center= -7.3D-01,  2.0D+00,  5.4D-01, r^2= 3.9D+00
   Bfn.  Coefficient  Atom+Function         Bfn.  Coefficient  Atom+Function  
  ----- ------------  ---------------      ----- ------------  ---------------
   241      0.330064  15 O  s               240      0.303200  15 O  s         
   215      0.209207  14 C  s               334     -0.167357  20 O  s         
   333     -0.157100  20 O  s         

 Vector   24  Occ=2.000000D+00  E=-1.406194D+00
              MO Center=  2.2D+00,  2.9D-01, -2.8D-01, r^2= 3.5D+00
   Bfn.  Coefficient  Atom+Function         Bfn.  Coefficient  Atom+Function  
  ----- ------------  ---------------      ----- ------------  ---------------
    79      0.311539   6 O  s                80      0.312644   6 O  s         
    54      0.219471   5 C  s                12      0.184799   2 C  s         
   334     -0.185029  20 O  s               333     -0.167030  20 O  s         

 Vector   25  Occ=2.000000D+00  E=-1.400384D+00
              MO Center= -2.6D+00,  5.6D-01, -5.7D-01, r^2= 1.7D+00
   Bfn.  Coefficient  Atom+Function         Bfn.  Coefficient  Atom+Function  
  ----- ------------  ---------------      ----- ------------  ---------------
   538      0.362647  32 O  s               537      0.339662  32 O  s         
   512      0.238604  31 C  s         

 Vector   26  Occ=2.000000D+00  E=-1.382501D+00
              MO Center=  5.2D-01, -3.7D+00,  2.7D-01, r^2= 1.2D+00
   Bfn.  Coefficient  Atom+Function         Bfn.  Coefficient  Atom+Function  
  ----- ------------  ---------------      ----- ------------  ---------------
   631      0.376426  37 O  s               630      0.350975  37 O  s         
   605      0.244201  36 C  s         

 Vector   27  Occ=2.000000D+00  E=-1.273329D+00
              MO Center=  1.3D+00,  5.8D-01,  2.8D-02, r^2= 3.6D+00
   Bfn.  Coefficient  Atom+Function         Bfn.  Coefficient  Atom+Function  
  ----- ------------  ---------------      ----- ------------  ---------------
   105      0.315125   7 N  s               104      0.265815   7 N  s         
   358      0.196549  21 N  s                80     -0.184382   6 O  s         
   334     -0.182034  20 O  s               359      0.182719  21 N  s         
    79     -0.157367   6 O  s         

 Vector   28  Occ=2.000000D+00  E=-1.256812D+00
              MO Center=  7.7D-01, -9.2D-02,  9.9D-02, r^2= 4.0D+00
   Bfn.  Coefficient  Atom+Function         Bfn.  Coefficient  Atom+Function  
  ----- ------------  ---------------      ----- ------------  ---------------
   359      0.357094  21 N  s               358      0.279925  21 N  s         
   105     -0.256848   7 N  s               104     -0.212482   7 N  s         

 Vector   29  Occ=2.000000D+00  E=-1.236384D+00
              MO Center= -1.5D+00,  2.0D+00,  9.4D-01, r^2= 2.7D+00
   Bfn.  Coefficient  Atom+Function         Bfn.  Coefficient  Atom+Function  
  ----- ------------  ---------------      ----- ------------  ---------------
   265      0.338137  16 N  s               266      0.300030  16 N  s         
   173     -0.229166  11 C  s               241     -0.201885  15 O  s         
   217      0.199062  14 C  s               240     -0.167853  15 O  s         
   220      0.160576  14 C  pz              289      0.153012  17 H  s         

 Vector   30  Occ=2.000000D+00  E=-1.227011D+00
              MO Center= -1.9D+00,  8.1D-01, -1.1D+00, r^2= 2.8D+00
   Bfn.  Coefficient  Atom+Function         Bfn.  Coefficient  Atom+Function  
  ----- ------------  ---------------      ----- ------------  ---------------
   563      0.350323  33 N  s               562      0.338820  33 N  s         
   538     -0.219836  32 O  s               537     -0.176966  32 O  s         
   586      0.161434  34 H  s         

 Vector   31  Occ=2.000000D+00  E=-1.210200D+00
              MO Center=  9.0D-01, -3.1D+00,  1.3D+00, r^2= 1.6D+00
   Bfn.  Coefficient  Atom+Function         Bfn.  Coefficient  Atom+Function  
  ----- ------------  ---------------      ----- ------------  ---------------
   656      0.391475  38 N  s               655      0.367688  38 N  s         
   631     -0.211827  37 O  s               610      0.180763  36 C  pz        
   630     -0.174032  37 O  s               679      0.164642  39 H  s         
   688      0.157111  40 H  s         

 Vector   32  Occ=2.000000D+00  E=-1.099758D+00
              MO Center=  1.7D-01,  1.7D-01,  3.4D-02, r^2= 7.9D+00
   Bfn.  Coefficient  Atom+Function         Bfn.  Coefficient  Atom+Function  
  ----- ------------  ---------------      ----- ------------  ---------------
   138      0.176954   9 C  s               172      0.168523  11 C  s         
   426     -0.166069  25 C  s               173      0.159404  11 C  s         

 Vector   33  Occ=2.000000D+00  E=-1.086692D+00
              MO Center= -4.0D-01, -1.1D-01, -2.3D-01, r^2= 8.5D+00
   Bfn.  Coefficient  Atom+Function         Bfn.  Coefficient  Atom+Function  
  ----- ------------  ---------------      ----- ------------  ---------------
   426      0.196466  25 C  s               469      0.182665  28 C  s         
   470      0.181690  28 C  s               172      0.179709  11 C  s         
   173      0.163412  11 C  s         

 Vector   34  Occ=2.000000D+00  E=-1.018703D+00
              MO Center=  2.2D+00,  1.7D+00, -1.4D+00, r^2= 5.1D+00
   Bfn.  Coefficient  Atom+Function         Bfn.  Coefficient  Atom+Function  
  ----- ------------  ---------------      ----- ------------  ---------------
    11      0.319864   2 C  s               173      0.309395  11 C  s         
   172      0.158386  11 C  s                59     -0.155151   5 C  pz        

 Vector   35  Occ=2.000000D+00  E=-1.001643D+00
              MO Center= -8.8D-01, -1.2D+00, -3.8D-01, r^2= 6.0D+00
   Bfn.  Coefficient  Atom+Function         Bfn.  Coefficient  Atom+Function  
  ----- ------------  ---------------      ----- ------------  ---------------
   392      0.235109  23 C  s               469     -0.226834  28 C  s         
   470     -0.190222  28 C  s               393      0.152420  23 C  s         

 Vector   36  Occ=2.000000D+00  E=-9.390490D-01
              MO Center=  5.7D-01,  1.2D+00,  5.4D-01, r^2= 6.7D+00
   Bfn.  Coefficient  Atom+Function         Bfn.  Coefficient  Atom+Function  
  ----- ------------  ---------------      ----- ------------  ---------------
   173      0.308931  11 C  s               138     -0.221954   9 C  s         
   178     -0.200999  11 C  px              172      0.165679  11 C  s         

 Vector   37  Occ=2.000000D+00  E=-8.854047D-01
              MO Center= -9.3D-01, -1.6D+00, -6.4D-01, r^2= 5.7D+00
   Bfn.  Coefficient  Atom+Function         Bfn.  Coefficient  Atom+Function  
  ----- ------------  ---------------      ----- ------------  ---------------
   470      0.344985  28 C  s               393      0.242950  23 C  s         
   426     -0.239875  25 C  s               476      0.236995  28 C  py        
   607     -0.182502  36 C  s               360      0.177923  21 N  s         
   519      0.171782  31 C  py              427     -0.170806  25 C  s         
   398      0.167678  23 C  px              450     -0.156760  26 H  s         

 Vector   38  Occ=2.000000D+00  E=-8.406873D-01
              MO Center=  6.8D-01,  4.4D-01,  2.9D-01, r^2= 6.8D+00
   Bfn.  Coefficient  Atom+Function         Bfn.  Coefficient  Atom+Function  
  ----- ------------  ---------------      ----- ------------  ---------------
   308      0.171719  19 C  s               363      0.165464  21 N  pz        
   393      0.161548  23 C  s               139      0.155235   9 C  s         

 Vector   39  Occ=2.000000D+00  E=-8.208722D-01
              MO Center=  6.5D-01,  4.0D-01, -1.5D-01, r^2= 6.0D+00
   Bfn.  Coefficient  Atom+Function         Bfn.  Coefficient  Atom+Function  
  ----- ------------  ---------------      ----- ------------  ---------------
   363      0.218284  21 N  pz              128      0.204526   8 H  s         
   393      0.189669  23 C  s               108      0.180486   7 N  py        
   105      0.176548   7 N  s               107     -0.163667   7 N  px        
   145     -0.155846   9 C  py              382     -0.155327  22 H  s         

 Vector   40  Occ=2.000000D+00  E=-8.123391D-01
              MO Center= -7.8D-01,  1.5D+00,  3.3D-01, r^2= 7.5D+00
   Bfn.  Coefficient  Atom+Function         Bfn.  Coefficient  Atom+Function  
  ----- ------------  ---------------      ----- ------------  ---------------
   268      0.187039  16 N  px              215      0.181802  14 C  s         

 Vector   41  Occ=2.000000D+00  E=-7.987087D-01
              MO Center= -9.7D-01,  2.2D-01, -2.1D-01, r^2= 7.6D+00
   Bfn.  Coefficient  Atom+Function         Bfn.  Coefficient  Atom+Function  
  ----- ------------  ---------------      ----- ------------  ---------------
   586     -0.185585  34 H  s               217      0.172046  14 C  s         
   363      0.172788  21 N  pz              309      0.169559  19 C  s         
   567      0.167348  33 N  pz              565     -0.163682  33 N  px        
   382     -0.150232  22 H  s         

 Vector   42  Occ=2.000000D+00  E=-7.905172D-01
              MO Center=  4.3D-02, -1.7D+00,  4.1D-01, r^2= 7.3D+00
   Bfn.  Coefficient  Atom+Function         Bfn.  Coefficient  Atom+Function  
  ----- ------------  ---------------      ----- ------------  ---------------
   427     -0.245525  25 C  s               309      0.231073  19 C  s         
   660      0.227766  38 N  pz              605     -0.188709  36 C  s         
   428     -0.154213  25 C  s               631      0.152310  37 O  s         

 Vector   43  Occ=2.000000D+00  E=-7.531053D-01
              MO Center= -4.6D-01,  1.0D+00,  7.4D-01, r^2= 7.2D+00
   Bfn.  Coefficient  Atom+Function         Bfn.  Coefficient  Atom+Function  
  ----- ------------  ---------------      ----- ------------  ---------------
   270      0.218702  16 N  pz              289      0.201546  17 H  s         
   312      0.159184  19 C  py        

 Vector   44  Occ=2.000000D+00  E=-7.453051D-01
              MO Center= -1.6D+00,  6.3D-01, -1.2D+00, r^2= 4.1D+00
   Bfn.  Coefficient  Atom+Function         Bfn.  Coefficient  Atom+Function  
  ----- ------------  ---------------      ----- ------------  ---------------
   566      0.290982  33 N  py              595      0.279453  35 H  s         
   586     -0.251840  34 H  s               470      0.236279  28 C  s         
   596      0.210379  35 H  s               567      0.207313  33 N  pz        

 Vector   45  Occ=2.000000D+00  E=-7.415329D-01
              MO Center=  5.2D-01, -1.6D+00,  1.1D+00, r^2= 7.3D+00
   Bfn.  Coefficient  Atom+Function         Bfn.  Coefficient  Atom+Function  
  ----- ------------  ---------------      ----- ------------  ---------------
   659      0.269267  38 N  py              679      0.256984  39 H  s         
   607      0.162769  36 C  s               688     -0.155272  40 H  s         
   399     -0.152213  23 C  py        

 Vector   46  Occ=2.000000D+00  E=-7.316554D-01
              MO Center=  5.0D-01,  4.3D-01,  5.8D-01, r^2= 8.8D+00
   Bfn.  Coefficient  Atom+Function         Bfn.  Coefficient  Atom+Function  
  ----- ------------  ---------------      ----- ------------  ---------------
   146     -0.212127   9 C  pz              145      0.207575   9 C  py        
   270      0.184489  16 N  pz               55      0.183365   5 C  s         
   109      0.182946   7 N  pz              309      0.175244  19 C  s         
   128     -0.164080   8 H  s               289      0.158238  17 H  s         
   105     -0.151376   7 N  s         

 Vector   47  Occ=2.000000D+00  E=-7.087165D-01
              MO Center= -1.2D-01,  8.2D-01,  5.3D-01, r^2= 7.8D+00
   Bfn.  Coefficient  Atom+Function         Bfn.  Coefficient  Atom+Function  
  ----- ------------  ---------------      ----- ------------  ---------------
   268      0.189090  16 N  px              298     -0.174274  18 H  s         
   399      0.155533  23 C  py        

 Vector   48  Occ=2.000000D+00  E=-6.979278D-01
              MO Center=  1.7D+00,  5.4D-01, -5.1D-01, r^2= 8.5D+00
   Bfn.  Coefficient  Atom+Function         Bfn.  Coefficient  Atom+Function  
  ----- ------------  ---------------      ----- ------------  ---------------
    80      0.207104   6 O  s                83     -0.198848   6 O  py        
    84      0.182201   6 O  pz               19     -0.163119   2 C  pz        
    16     -0.157423   2 C  pz               54     -0.151917   5 C  s         

 Vector   49  Occ=2.000000D+00  E=-6.859981D-01
              MO Center= -1.1D-01,  2.7D-01,  3.0D-03, r^2= 9.4D+00
   Bfn.  Coefficient  Atom+Function         Bfn.  Coefficient  Atom+Function  
  ----- ------------  ---------------      ----- ------------  ---------------
   399      0.201471  23 C  py              362     -0.171157  21 N  py        

 Vector   50  Occ=2.000000D+00  E=-6.780044D-01
              MO Center=  2.7D-01, -2.1D+00,  4.6D-01, r^2= 7.9D+00
   Bfn.  Coefficient  Atom+Function         Bfn.  Coefficient  Atom+Function  
  ----- ------------  ---------------      ----- ------------  ---------------
   688      0.235728  40 H  s               607      0.214622  36 C  s         
   610     -0.211136  36 C  pz              658      0.193659  38 N  px        
   634      0.182792  37 O  py              659     -0.173045  38 N  py        
   631     -0.156889  37 O  s         

 Vector   51  Occ=2.000000D+00  E=-6.663450D-01
              MO Center= -1.8D+00,  2.0D-01, -2.0D-01, r^2= 6.8D+00
   Bfn.  Coefficient  Atom+Function         Bfn.  Coefficient  Atom+Function  
  ----- ------------  ---------------      ----- ------------  ---------------
   541      0.211292  32 O  py              538      0.199252  32 O  s         
   517     -0.178775  31 C  pz              566     -0.170641  33 N  py        

 Vector   52  Occ=2.000000D+00  E=-6.601431D-01
              MO Center=  4.8D-01,  8.2D-01,  3.3D-02, r^2= 8.8D+00
   Bfn.  Coefficient  Atom+Function         Bfn.  Coefficient  Atom+Function  
  ----- ------------  ---------------      ----- ------------  ---------------
   245      0.210523  15 O  pz              162      0.173074  10 H  s         

 Vector   53  Occ=2.000000D+00  E=-6.425929D-01
              MO Center=  5.6D-01,  6.8D-01,  4.2D-01, r^2= 9.3D+00
   Bfn.  Coefficient  Atom+Function         Bfn.  Coefficient  Atom+Function  
  ----- ------------  ---------------      ----- ------------  ---------------
   176      0.170614  11 C  py              313      0.159762  19 C  pz        
   338     -0.159400  20 O  pz              334     -0.153077  20 O  s         

 Vector   54  Occ=2.000000D+00  E=-6.351020D-01
              MO Center=  1.4D+00,  8.3D-01, -1.0D+00, r^2= 8.7D+00
   Bfn.  Coefficient  Atom+Function         Bfn.  Coefficient  Atom+Function  
  ----- ------------  ---------------      ----- ------------  ---------------
    14      0.229615   2 C  px               44      0.186404   4 H  s         
    35     -0.184298   3 H  s                36     -0.179547   3 H  s         
   139     -0.177782   9 C  s                57      0.161593   5 C  px        
   173      0.158416  11 C  s         

 Vector   55  Occ=2.000000D+00  E=-6.230180D-01
              MO Center= -7.7D-01, -7.2D-01, -5.5D-01, r^2= 1.0D+01
   Bfn.  Coefficient  Atom+Function         Bfn.  Coefficient  Atom+Function  
  ----- ------------  ---------------      ----- ------------  ---------------
   542      0.237990  32 O  pz              634      0.190351  37 O  py        
   515      0.183194  31 C  px        

 Vector   56  Occ=2.000000D+00  E=-6.150049D-01
              MO Center= -2.4D-01,  3.0D-02,  1.8D-01, r^2= 9.1D+00
   Bfn.  Coefficient  Atom+Function         Bfn.  Coefficient  Atom+Function  
  ----- ------------  ---------------      ----- ------------  ---------------
   338      0.226475  20 O  pz              142     -0.176534   9 C  py        
   145     -0.154315   9 C  py              311      0.153679  19 C  px        

 Vector   57  Occ=2.000000D+00  E=-6.045799D-01
              MO Center= -5.6D-01, -1.0D+00,  3.5D-02, r^2= 8.9D+00
   Bfn.  Coefficient  Atom+Function         Bfn.  Coefficient  Atom+Function  
  ----- ------------  ---------------      ----- ------------  ---------------
   474      0.172787  28 C  pz              427      0.159765  25 C  s         

 Vector   58  Occ=2.000000D+00  E=-6.003769D-01
              MO Center=  2.6D-01,  8.4D-01,  3.8D-01, r^2= 1.1D+01
   Bfn.  Coefficient  Atom+Function         Bfn.  Coefficient  Atom+Function  
  ----- ------------  ---------------      ----- ------------  ---------------
   245      0.238654  15 O  pz              173      0.236220  11 C  s         
   177      0.218543  11 C  pz              196      0.206769  12 H  s         
   197      0.156657  12 H  s         

 Vector   59  Occ=2.000000D+00  E=-5.942077D-01
              MO Center=  1.3D+00,  3.9D-01, -4.9D-01, r^2= 8.6D+00
   Bfn.  Coefficient  Atom+Function         Bfn.  Coefficient  Atom+Function  
  ----- ------------  ---------------      ----- ------------  ---------------
    83      0.247964   6 O  py              173      0.212699  11 C  s         
    58     -0.198544   5 C  py               82     -0.187154   6 O  px        
    80     -0.175995   6 O  s                59      0.161367   5 C  pz        
   128      0.153293   8 H  s         

 Vector   60  Occ=2.000000D+00  E=-5.902894D-01
              MO Center=  3.0D-01, -1.4D-01, -3.0D-01, r^2= 1.3D+01
   Bfn.  Coefficient  Atom+Function         Bfn.  Coefficient  Atom+Function  
  ----- ------------  ---------------      ----- ------------  ---------------
   609      0.176114  36 C  py                2      0.171717   1 H  s         
   635     -0.170389  37 O  pz              634     -0.161321  37 O  py        
   542      0.151668  32 O  pz        

 Vector   61  Occ=2.000000D+00  E=-5.834911D-01
              MO Center=  3.6D-01,  4.7D-01, -6.8D-01, r^2= 1.2D+01
   Bfn.  Coefficient  Atom+Function         Bfn.  Coefficient  Atom+Function  
  ----- ------------  ---------------      ----- ------------  ---------------
     2      0.219939   1 H  s                 1      0.209821   1 H  s         
    15     -0.177175   2 C  py              540      0.166090  32 O  px        
    14      0.156670   2 C  px              318      0.154424  19 C  py        

 Vector   62  Occ=2.000000D+00  E=-5.784650D-01
              MO Center= -1.2D+00, -2.0D-01, -6.8D-01, r^2= 8.7D+00
   Bfn.  Coefficient  Atom+Function         Bfn.  Coefficient  Atom+Function  
  ----- ------------  ---------------      ----- ------------  ---------------
   540      0.257002  32 O  px              517      0.208156  31 C  pz        
   427     -0.191043  25 C  s               565      0.181369  33 N  px        
   543      0.178370  32 O  px        

 Vector   63  Occ=2.000000D+00  E=-5.660299D-01
              MO Center=  6.8D-01,  7.3D-01,  2.5D-02, r^2= 9.2D+00
   Bfn.  Coefficient  Atom+Function         Bfn.  Coefficient  Atom+Function  
  ----- ------------  ---------------      ----- ------------  ---------------
   336     -0.169021  20 O  px              244      0.166248  15 O  py        
   393     -0.164531  23 C  s               173     -0.150415  11 C  s         

 Vector   64  Occ=2.000000D+00  E=-5.615727D-01
              MO Center=  7.6D-01,  1.2D+00,  4.3D-01, r^2= 1.1D+01
   Bfn.  Coefficient  Atom+Function         Bfn.  Coefficient  Atom+Function  
  ----- ------------  ---------------      ----- ------------  ---------------
   197      0.283856  12 H  s               217      0.274557  14 C  s         
    56      0.273067   5 C  s               174     -0.238404  11 C  s         
   205     -0.230398  13 H  s               139      0.219282   9 C  s         
   175     -0.185874  11 C  px              196      0.185648  12 H  s         
   417     -0.181477  24 H  s               173     -0.179004  11 C  s         

 Vector   65  Occ=2.000000D+00  E=-5.492587D-01
              MO Center=  2.1D-01, -5.7D-01, -1.7D-02, r^2= 1.1D+01
   Bfn.  Coefficient  Atom+Function         Bfn.  Coefficient  Atom+Function  
  ----- ------------  ---------------      ----- ------------  ---------------
   360      0.150916  21 N  s         

 Vector   66  Occ=2.000000D+00  E=-5.442668D-01
              MO Center=  4.5D-01,  4.2D-01,  4.6D-01, r^2= 1.0D+01
   Bfn.  Coefficient  Atom+Function         Bfn.  Coefficient  Atom+Function  
  ----- ------------  ---------------      ----- ------------  ---------------
   173      0.350124  11 C  s               176      0.191124  11 C  py        
   244     -0.173359  15 O  py              145     -0.156652   9 C  py        
   205      0.152890  13 H  s         

 Vector   67  Occ=2.000000D+00  E=-5.368280D-01
              MO Center=  1.0D+00,  5.6D-01, -3.1D-01, r^2= 8.8D+00
   Bfn.  Coefficient  Atom+Function         Bfn.  Coefficient  Atom+Function  
  ----- ------------  ---------------      ----- ------------  ---------------
   139      0.180966   9 C  s               141      0.179001   9 C  px        
   178     -0.168910  11 C  px              162      0.165332  10 H  s         
   179      0.152564  11 C  py        

 Vector   68  Occ=2.000000D+00  E=-5.319876D-01
              MO Center= -1.1D+00, -1.7D+00, -6.9D-01, r^2= 6.4D+00
   Bfn.  Coefficient  Atom+Function         Bfn.  Coefficient  Atom+Function  
  ----- ------------  ---------------      ----- ------------  ---------------
   460      0.279318  27 H  s               459      0.231994  27 H  s         
   502     -0.216980  30 H  s               451     -0.207079  26 H  s         
   430     -0.204635  25 C  py              429     -0.186224  25 C  px        
   606     -0.155921  36 C  s         

 Vector   69  Occ=2.000000D+00  E=-5.156274D-01
              MO Center= -1.3D+00, -1.1D+00, -6.2D-01, r^2= 6.9D+00
   Bfn.  Coefficient  Atom+Function         Bfn.  Coefficient  Atom+Function  
  ----- ------------  ---------------      ----- ------------  ---------------
   472      0.272653  28 C  px              429     -0.233865  25 C  px        
   427      0.188930  25 C  s               475      0.172429  28 C  px        
   493     -0.164554  29 H  s         

 Vector   70  Occ=2.000000D+00  E=-5.095316D-01
              MO Center= -1.2D+00, -1.8D+00, -8.1D-01, r^2= 4.3D+00
   Bfn.  Coefficient  Atom+Function         Bfn.  Coefficient  Atom+Function  
  ----- ------------  ---------------      ----- ------------  ---------------
   431     -0.283606  25 C  pz              397      0.281801  23 C  pz        
   494     -0.263699  29 H  s               450      0.258714  26 H  s         
   451      0.256203  26 H  s               417      0.221575  24 H  s         
   416      0.194751  24 H  s               474      0.188744  28 C  pz        
   502      0.186909  30 H  s               434     -0.180800  25 C  pz        

 Vector   71  Occ=2.000000D+00  E=-4.647425D-01
              MO Center=  9.2D-01,  1.1D-01,  9.6D-01, r^2= 5.5D+00
   Bfn.  Coefficient  Atom+Function         Bfn.  Coefficient  Atom+Function  
  ----- ------------  ---------------      ----- ------------  ---------------
   337      0.363070  20 O  py              340      0.296772  20 O  py        
   139     -0.271137   9 C  s               336      0.174888  20 O  px        
    82     -0.169193   6 O  px              338      0.168249  20 O  pz        
   173      0.157902  11 C  s         

 Vector   72  Occ=2.000000D+00  E=-4.537484D-01
              MO Center=  5.8D-02, -6.1D-01,  5.4D-01, r^2= 8.8D+00
   Bfn.  Coefficient  Atom+Function         Bfn.  Coefficient  Atom+Function  
  ----- ------------  ---------------      ----- ------------  ---------------
   360      0.354337  21 N  s               336     -0.277364  20 O  px        
   635      0.229880  37 O  pz              339     -0.219975  20 O  px        
   361      0.211528  21 N  px              364      0.199379  21 N  px        
   607     -0.188195  36 C  s               243     -0.184739  15 O  px        
   638      0.171591  37 O  pz              633      0.153724  37 O  px        

 Vector   73  Occ=2.000000D+00  E=-4.479903D-01
              MO Center= -4.2D-01,  1.5D+00,  1.4D-01, r^2= 8.3D+00
   Bfn.  Coefficient  Atom+Function         Bfn.  Coefficient  Atom+Function  
  ----- ------------  ---------------      ----- ------------  ---------------
   243      0.431022  15 O  px              246      0.348726  15 O  px        
   221     -0.213933  14 C  px               84      0.163430   6 O  pz        
   541     -0.151208  32 O  py        

 Vector   74  Occ=2.000000D+00  E=-4.394602D-01
              MO Center=  2.2D+00,  3.0D-01, -7.7D-01, r^2= 5.9D+00
   Bfn.  Coefficient  Atom+Function         Bfn.  Coefficient  Atom+Function  
  ----- ------------  ---------------      ----- ------------  ---------------
    84      0.442378   6 O  pz               87      0.350350   6 O  pz        
    82     -0.233011   6 O  px              607      0.208097  36 C  s         
    85     -0.198936   6 O  px              105     -0.179335   7 N  s         
    16      0.166770   2 C  pz               19      0.165150   2 C  pz        

 Vector   75  Occ=2.000000D+00  E=-4.311872D-01
              MO Center= -1.2D+00,  9.7D-01,  9.9D-02, r^2= 8.5D+00
   Bfn.  Coefficient  Atom+Function         Bfn.  Coefficient  Atom+Function  
  ----- ------------  ---------------      ----- ------------  ---------------
   564      0.299799  33 N  s               244      0.244386  15 O  py        
   269     -0.218274  16 N  py              247      0.204091  15 O  py        
   272     -0.187393  16 N  py              471     -0.188276  28 C  s         
   565     -0.177085  33 N  px              267     -0.169177  16 N  s         
   540      0.167021  32 O  px              567     -0.153822  33 N  pz        

 Vector   76  Occ=2.000000D+00  E=-4.262435D-01
              MO Center= -2.3D+00,  1.3D-01, -4.7D-01, r^2= 5.3D+00
   Bfn.  Coefficient  Atom+Function         Bfn.  Coefficient  Atom+Function  
  ----- ------------  ---------------      ----- ------------  ---------------
   541      0.458794  32 O  py              544      0.365115  32 O  py        
   473      0.196501  28 C  py              427      0.191701  25 C  s         
   519     -0.171592  31 C  py              470     -0.170570  28 C  s         

 Vector   77  Occ=2.000000D+00  E=-4.113442D-01
              MO Center= -1.4D+00,  1.2D+00,  2.2D-02, r^2= 6.9D+00
   Bfn.  Coefficient  Atom+Function         Bfn.  Coefficient  Atom+Function  
  ----- ------------  ---------------      ----- ------------  ---------------
   269      0.267005  16 N  py              244     -0.242629  15 O  py        
   272      0.213532  16 N  py              540      0.205581  32 O  px        
   247     -0.200582  15 O  py              565     -0.199063  33 N  px        
   564      0.180737  33 N  s               567     -0.179881  33 N  pz        
   543      0.173035  32 O  px              542      0.170031  32 O  pz        

 Vector   78  Occ=2.000000D+00  E=-4.105273D-01
              MO Center=  8.2D-01,  7.5D-01,  1.2D-02, r^2= 7.0D+00
   Bfn.  Coefficient  Atom+Function         Bfn.  Coefficient  Atom+Function  
  ----- ------------  ---------------      ----- ------------  ---------------
   106      0.265269   7 N  s               107      0.263217   7 N  px        
   110      0.238456   7 N  px              337     -0.205196  20 O  py        
   108      0.197805   7 N  py              163     -0.197259  10 H  s         
    82     -0.193046   6 O  px              111      0.189470   7 N  py        
   340     -0.163291  20 O  py              564     -0.162656  33 N  s         

 Vector   79  Occ=2.000000D+00  E=-4.035108D-01
              MO Center=  7.7D-01, -3.4D+00,  8.4D-01, r^2= 2.7D+00
   Bfn.  Coefficient  Atom+Function         Bfn.  Coefficient  Atom+Function  
  ----- ------------  ---------------      ----- ------------  ---------------
   633      0.372897  37 O  px              658     -0.306934  38 N  px        
   636      0.292376  37 O  px              661     -0.258371  38 N  px        
   660      0.242592  38 N  pz              663      0.212451  38 N  pz        
   368     -0.172435  21 N  py              659     -0.173027  38 N  py        
   367     -0.167132  21 N  px              174      0.165312  11 C  s         

 Vector   80  Occ=2.000000D+00  E=-3.946207D-01
              MO Center=  2.2D-01, -1.8D+00,  3.2D-01, r^2= 6.0D+00
   Bfn.  Coefficient  Atom+Function         Bfn.  Coefficient  Atom+Function  
  ----- ------------  ---------------      ----- ------------  ---------------
   361      0.269949  21 N  px              364      0.251906  21 N  px        
   635     -0.231510  37 O  pz              634      0.200236  37 O  py        
   368     -0.195064  21 N  py              638     -0.191483  37 O  pz        
   362     -0.182764  21 N  py              606     -0.183134  36 C  s         
   365     -0.166210  21 N  py              336     -0.160655  20 O  px        

 Vector   81  Occ=0.000000D+00  E= 2.305193D-02
              MO Center=  1.6D+00,  2.1D+00, -2.9D+00, r^2= 2.6D+01
   Bfn.  Coefficient  Atom+Function         Bfn.  Coefficient  Atom+Function  
  ----- ------------  ---------------      ----- ------------  ---------------
   384      5.460544  22 H  s               318      3.744219  19 C  py        
   607      2.777116  36 C  s               217      2.667189  14 C  s         
    65     -2.582757   5 C  pz              207     -2.156234  13 H  s         
   319      1.993900  19 C  pz               37     -1.944320   3 H  s         
   130      1.839722   8 H  s               149     -1.812625   9 C  pz        

 Vector   82  Occ=0.000000D+00  E= 3.025293D-02
              MO Center=  9.8D-01,  1.9D+00, -2.0D-01, r^2= 3.6D+01
   Bfn.  Coefficient  Atom+Function         Bfn.  Coefficient  Atom+Function  
  ----- ------------  ---------------      ----- ------------  ---------------
   318      3.858820  19 C  py               56      3.570500   5 C  s         
   319      2.841648  19 C  pz              514     -2.848782  31 C  s         
   401      2.778436  23 C  px              207     -2.763639  13 H  s         
   106     -2.709314   7 N  s               140     -2.651314   9 C  s         
   471      2.640060  28 C  s               360      2.573409  21 N  s         

 Vector   83  Occ=0.000000D+00  E= 3.779298D-02
              MO Center= -1.2D-01,  3.9D-01, -1.1D-01, r^2= 4.5D+01
   Bfn.  Coefficient  Atom+Function         Bfn.  Coefficient  Atom+Function  
  ----- ------------  ---------------      ----- ------------  ---------------
   318      3.850315  19 C  py              217     -3.698072  14 C  s         
   149     -3.603109   9 C  pz              514     -3.584539  31 C  s         
    65     -3.439882   5 C  pz              607     -3.247032  36 C  s         
    56     -2.877618   5 C  s               267      2.745468  16 N  s         
   403      2.615940  23 C  pz              198      2.487828  12 H  s         

 Vector   84  Occ=0.000000D+00  E= 4.453607D-02
              MO Center=  1.8D+00, -8.1D-01,  5.0D-01, r^2= 4.2D+01
   Bfn.  Coefficient  Atom+Function         Bfn.  Coefficient  Atom+Function  
  ----- ------------  ---------------      ----- ------------  ---------------
   207      2.642310  13 H  s               402     -2.567355  23 C  py        
     3     -2.349313   1 H  s               147      2.354365   9 C  px        
   164     -2.274809  10 H  s               403      2.258150  23 C  pz        
   106      2.165719   7 N  s               495      2.152829  29 H  s         
   690     -2.048559  40 H  s               657     -1.974761  38 N  s         

 Vector   85  Occ=0.000000D+00  E= 4.864211D-02
              MO Center= -7.8D-01,  2.5D-01, -9.8D-02, r^2= 4.3D+01
   Bfn.  Coefficient  Atom+Function         Bfn.  Coefficient  Atom+Function  
  ----- ------------  ---------------      ----- ------------  ---------------
   217      4.961385  14 C  s               198     -3.244234  12 H  s         
   267     -2.667438  16 N  s                56     -2.227059   5 C  s         
   461      2.217841  27 H  s               149     -2.067028   9 C  pz        
   319      2.010971  19 C  pz              164      1.956865  10 H  s         
   495      1.965466  29 H  s                46      1.909247   4 H  s         

 Vector   86  Occ=0.000000D+00  E= 4.955685D-02
              MO Center= -9.0D-01,  4.0D-01,  6.8D-01, r^2= 3.9D+01
   Bfn.  Coefficient  Atom+Function         Bfn.  Coefficient  Atom+Function  
  ----- ------------  ---------------      ----- ------------  ---------------
   217      4.881228  14 C  s               267     -3.755841  16 N  s         
   174      3.160990  11 C  s               164      2.947239  10 H  s         
    56     -2.856759   5 C  s               504     -2.606194  30 H  s         
   149     -2.517099   9 C  pz              148     -1.979491   9 C  py        
    46     -1.947492   4 H  s               317     -1.857553  19 C  px        

 Vector   87  Occ=0.000000D+00  E= 5.320342D-02
              MO Center=  1.2D+00, -4.7D-01, -1.4D+00, r^2= 4.2D+01
   Bfn.  Coefficient  Atom+Function         Bfn.  Coefficient  Atom+Function  
  ----- ------------  ---------------      ----- ------------  ---------------
     3      3.631139   1 H  s               657     -3.044202  38 N  s         
    65      2.592133   5 C  pz               56      2.559740   5 C  s         
   318     -2.562678  19 C  py              149      2.357371   9 C  pz        
   564     -2.345535  33 N  s                13      2.232287   2 C  s         
   616      2.197523  36 C  pz              130     -2.177694   8 H  s         

 Vector   88  Occ=0.000000D+00  E= 6.029502D-02
              MO Center=  1.2D+00,  4.7D-01,  4.9D-01, r^2= 4.3D+01
   Bfn.  Coefficient  Atom+Function         Bfn.  Coefficient  Atom+Function  
  ----- ------------  ---------------      ----- ------------  ---------------
   164      4.979982  10 H  s               207     -4.592570  13 H  s         
   452     -3.712418  26 H  s               384      3.671360  22 H  s         
    56     -3.501718   5 C  s               147     -2.951364   9 C  px        
   403      2.965929  23 C  pz              149     -2.848825   9 C  pz        
   174      2.380686  11 C  s               217     -2.352742  14 C  s         

 Vector   89  Occ=0.000000D+00  E= 6.412995D-02
              MO Center= -6.2D-01,  3.4D-01, -5.9D-01, r^2= 4.4D+01
   Bfn.  Coefficient  Atom+Function         Bfn.  Coefficient  Atom+Function  
  ----- ------------  ---------------      ----- ------------  ---------------
   217      7.571880  14 C  s               384     -5.153719  22 H  s         
   267     -4.689924  16 N  s               607      4.432716  36 C  s         
    37      4.322125   3 H  s                13     -3.478197   2 C  s         
     3     -3.326597   1 H  s               318      3.342883  19 C  py        
   394      3.247534  23 C  s               403     -3.197966  23 C  pz        

 Vector   90  Occ=0.000000D+00  E= 6.645998D-02
              MO Center= -4.1D-01,  6.6D-01,  8.0D-02, r^2= 4.5D+01
   Bfn.  Coefficient  Atom+Function         Bfn.  Coefficient  Atom+Function  
  ----- ------------  ---------------      ----- ------------  ---------------
[...]

 Vector  196  Occ=0.000000D+00  E= 4.411428D-01
              MO Center=  4.6D-01,  1.2D-01, -3.5D-01, r^2= 2.1D+01
   Bfn.  Coefficient  Atom+Function         Bfn.  Coefficient  Atom+Function  
  ----- ------------  ---------------      ----- ------------  ---------------
   607     23.517399  36 C  s               318     19.112727  19 C  py        
   394     18.237188  23 C  s               106    -17.849385   7 N  s         
   402     16.110953  23 C  py              317     13.685397  19 C  px        
    13    -12.923367   2 C  s               149    -12.456901   9 C  pz        
   360     -9.309040  21 N  s               368      8.976627  21 N  py        

 Vector  197  Occ=0.000000D+00  E= 4.479750D-01
              MO Center= -2.4D-01,  2.1D-01, -2.6D-01, r^2= 2.1D+01
   Bfn.  Coefficient  Atom+Function         Bfn.  Coefficient  Atom+Function  
  ----- ------------  ---------------      ----- ------------  ---------------
   267     16.552946  16 N  s               384     10.289786  22 H  s         
   369      9.244002  21 N  pz               65      6.892491   5 C  pz        
   149      6.871038   9 C  pz              310     -6.513226  19 C  s         
    13      6.247888   2 C  s               217     -6.220013  14 C  s         
   115      5.888961   7 N  pz              471     -5.888625  28 C  s         

 Vector  198  Occ=0.000000D+00  E= 4.497338D-01
              MO Center= -1.0D+00,  1.9D-01, -2.0D-01, r^2= 2.0D+01
   Bfn.  Coefficient  Atom+Function         Bfn.  Coefficient  Atom+Function  
  ----- ------------  ---------------      ----- ------------  ---------------
   522     11.634738  31 C  py              106      9.930499   7 N  s         
   402     -8.659178  23 C  py              317     -8.120488  19 C  px        
   318     -7.565908  19 C  py              368     -7.245199  21 N  py        
   428      6.795238  25 C  s               470     -6.394536  28 C  s         
   607     -5.915198  36 C  s               140      5.572949   9 C  s         

 Vector  199  Occ=0.000000D+00  E= 4.527446D-01
              MO Center= -9.4D-02, -4.4D-01,  1.9D-01, r^2= 2.0D+01
   Bfn.  Coefficient  Atom+Function         Bfn.  Coefficient  Atom+Function  
  ----- ------------  ---------------      ----- ------------  ---------------
   318     15.975913  19 C  py              394     15.819634  23 C  s         
   607     13.335366  36 C  s                13    -11.694574   2 C  s         
   402     11.670099  23 C  py              514    -11.422765  31 C  s         
    65    -10.497506   5 C  pz              217     -9.425922  14 C  s         
   471     -7.330556  28 C  s               657     -6.658706  38 N  s         

 Vector  200  Occ=0.000000D+00  E= 4.554191D-01
              MO Center= -9.5D-02, -3.9D-01, -6.6D-02, r^2= 1.9D+01
   Bfn.  Coefficient  Atom+Function         Bfn.  Coefficient  Atom+Function  
  ----- ------------  ---------------      ----- ------------  ---------------
   607     12.880926  36 C  s               217     12.627222  14 C  s         
   657    -11.168163  38 N  s               402     10.936012  23 C  py        
   140    -10.043670   9 C  s                12     -8.768741   2 C  s         
   317      8.632674  19 C  px              394      8.633850  23 C  s         
   318      8.584481  19 C  py              427     -8.283006  25 C  s         

 Vector  201  Occ=0.000000D+00  E= 4.602344D-01
              MO Center= -1.3D-01,  2.8D-01,  1.8D-01, r^2= 2.0D+01
   Bfn.  Coefficient  Atom+Function         Bfn.  Coefficient  Atom+Function  
  ----- ------------  ---------------      ----- ------------  ---------------
   514    -16.966461  31 C  s               217     16.779058  14 C  s         
   607    -14.652768  36 C  s               384      9.346161  22 H  s         
   428      9.214633  25 C  s               318     -8.376015  19 C  py        
   173      8.327261  11 C  s               206     -6.498514  13 H  s         
   197     -5.449922  12 H  s               163      5.089868  10 H  s         

 Vector  202  Occ=0.000000D+00  E= 4.620196D-01
              MO Center= -7.9D-02,  7.0D-01, -4.3D-01, r^2= 1.9D+01
   Bfn.  Coefficient  Atom+Function         Bfn.  Coefficient  Atom+Function  
  ----- ------------  ---------------      ----- ------------  ---------------
   217     14.713653  14 C  s               318    -11.430942  19 C  py        
   428     -9.063036  25 C  s               368      8.726944  21 N  py        
   514      8.383540  31 C  s               564     -8.037509  33 N  s         
   384     -7.369843  22 H  s               149      6.757853   9 C  pz        
   369     -6.206090  21 N  pz              607      6.145515  36 C  s         

 Vector  203  Occ=0.000000D+00  E= 4.686750D-01
              MO Center= -8.1D-01, -1.4D-01, -4.9D-01, r^2= 2.0D+01
   Bfn.  Coefficient  Atom+Function         Bfn.  Coefficient  Atom+Function  
  ----- ------------  ---------------      ----- ------------  ---------------
   471     18.665858  28 C  s               403     12.433000  23 C  pz        
   401     11.779183  23 C  px              514     11.303836  31 C  s         
   607    -11.249564  36 C  s               394     -9.027296  23 C  s         
   478      8.798558  28 C  px              384      8.709351  22 H  s         
   217     -8.648051  14 C  s               494     -5.508364  29 H  s         

 Vector  204  Occ=0.000000D+00  E= 4.692513D-01
              MO Center=  4.7D-01, -7.5D-02, -7.4D-01, r^2= 2.1D+01
   Bfn.  Coefficient  Atom+Function         Bfn.  Coefficient  Atom+Function  
  ----- ------------  ---------------      ----- ------------  ---------------
   514    -15.485054  31 C  s               403     14.293930  23 C  pz        
   106    -10.531671   7 N  s               607    -10.581592  36 C  s         
   384    -10.305806  22 H  s                13      9.811040   2 C  s         
   428      9.744586  25 C  s                56      9.573137   5 C  s         
   319     -9.529290  19 C  pz              471      8.789838  28 C  s         

 Vector  205  Occ=0.000000D+00  E= 4.736805D-01
              MO Center= -3.1D-01, -7.0D-01, -2.2D-01, r^2= 2.1D+01
   Bfn.  Coefficient  Atom+Function         Bfn.  Coefficient  Atom+Function  
  ----- ------------  ---------------      ----- ------------  ---------------
   174     17.261454  11 C  s               514    -13.968091  31 C  s         
   657     13.651878  38 N  s               607    -13.510183  36 C  s         
   564     12.817194  33 N  s               428     11.719428  25 C  s         
    56    -11.107744   5 C  s               403     10.216666  23 C  pz        
   616     -9.423066  36 C  pz              106     -8.472522   7 N  s         

 Vector  206  Occ=0.000000D+00  E= 4.807535D-01
              MO Center= -8.0D-02, -5.2D-01,  2.5D-01, r^2= 2.1D+01
   Bfn.  Coefficient  Atom+Function         Bfn.  Coefficient  Atom+Function  
  ----- ------------  ---------------      ----- ------------  ---------------
   217     23.617428  14 C  s               360     19.337362  21 N  s         
   384     14.246295  22 H  s                56    -13.841201   5 C  s         
   267    -13.274549  16 N  s               607    -12.882903  36 C  s         
   471     10.001673  28 C  s               402     -8.677159  23 C  py        
   514      8.180371  31 C  s               564     -8.148037  33 N  s         

 Vector  207  Occ=0.000000D+00  E= 4.850594D-01
              MO Center= -6.7D-02, -1.0D-02, -9.8D-01, r^2= 2.1D+01
   Bfn.  Coefficient  Atom+Function         Bfn.  Coefficient  Atom+Function  
  ----- ------------  ---------------      ----- ------------  ---------------
   384     27.277779  22 H  s               514    -14.334240  31 C  s         
   564    -13.959383  33 N  s               657     12.231312  38 N  s         
    56    -10.993690   5 C  s               607    -10.599714  36 C  s         
   403      9.694072  23 C  pz              394     -8.513936  23 C  s         
   428      7.408071  25 C  s               267      7.275604  16 N  s         

 Vector  208  Occ=0.000000D+00  E= 4.884296D-01
              MO Center=  4.0D-02,  7.0D-02, -7.0D-01, r^2= 1.9D+01
   Bfn.  Coefficient  Atom+Function         Bfn.  Coefficient  Atom+Function  
  ----- ------------  ---------------      ----- ------------  ---------------
   514     11.356620  31 C  s               564    -10.544117  33 N  s         
   428    -10.030146  25 C  s                12     -9.246180   2 C  s         
   369     -7.897459  21 N  pz              470     -6.581422  28 C  s         
   607      5.853720  36 C  s               139     -5.653841   9 C  s         
   149      5.626036   9 C  pz              657     -5.525850  38 N  s         

 Vector  209  Occ=0.000000D+00  E= 4.897671D-01
              MO Center= -1.6D-01, -7.3D-02, -5.2D-01, r^2= 2.1D+01
   Bfn.  Coefficient  Atom+Function         Bfn.  Coefficient  Atom+Function  
  ----- ------------  ---------------      ----- ------------  ---------------
   217     36.673751  14 C  s               267    -20.072873  16 N  s         
   514    -14.735126  31 C  s               471    -11.805030  28 C  s         
   140     -9.832978   9 C  s               148     -7.570465   9 C  py        
   428      7.291776  25 C  s               106     -6.848038   7 N  s         
   427     -5.326616  25 C  s               368     -5.218781  21 N  py        

 Vector  210  Occ=0.000000D+00  E= 4.956823D-01
              MO Center=  4.4D-01,  4.2D-01, -9.0D-02, r^2= 2.0D+01
   Bfn.  Coefficient  Atom+Function         Bfn.  Coefficient  Atom+Function  
  ----- ------------  ---------------      ----- ------------  ---------------
    56     16.408867   5 C  s               607     15.721917  36 C  s         
   267    -14.025128  16 N  s               173    -12.427913  11 C  s         
   471    -12.128275  28 C  s               217     12.066306  14 C  s         
   403    -11.646989  23 C  pz              428    -11.517574  25 C  s         
   174    -10.812815  11 C  s               148      8.613004   9 C  py        

 Vector  211  Occ=0.000000D+00  E= 4.964810D-01
              MO Center=  6.4D-01,  5.5D-01, -8.5D-03, r^2= 2.0D+01
   Bfn.  Coefficient  Atom+Function         Bfn.  Coefficient  Atom+Function  
  ----- ------------  ---------------      ----- ------------  ---------------
   360     12.881514  21 N  s               174    -11.413989  11 C  s         
    13     -8.862828   2 C  s               514     -8.127315  31 C  s         
   173     -8.064272  11 C  s               197      7.653470  12 H  s         
   319      7.508257  19 C  pz              394      7.374429  23 C  s         
    65     -7.222774   5 C  pz              367     -7.174034  21 N  px        

 Vector  212  Occ=0.000000D+00  E= 5.005194D-01
              MO Center=  4.0D-01, -3.5D-02, -1.7D-01, r^2= 1.9D+01
   Bfn.  Coefficient  Atom+Function         Bfn.  Coefficient  Atom+Function  
  ----- ------------  ---------------      ----- ------------  ---------------
   360     18.564321  21 N  s                13    -10.664829   2 C  s         
   384     10.168820  22 H  s               564     -9.608976  33 N  s         
   174     -9.349454  11 C  s               115     -8.536851   7 N  pz        
   267      7.379251  16 N  s               514     -6.491952  31 C  s         
    55     -6.390698   5 C  s               148      6.314044   9 C  py        


 center of mass
 --------------
 x =  -0.00406549 y =  -0.01902836 z =   0.03904783

 moments of inertia (a.u.)
 ------------------
        6385.651829139500          -0.000000000000           0.000000000001
          -0.000000000000        5184.176145367030          -0.000000000002
           0.000000000001          -0.000000000002        7800.991941206572

  Mulliken analysis of the total density
  --------------------------------------

    Atom       Charge   Shell Charges
 -----------   ------   -------------------------------------------------------
    1 H    1     0.96   0.76  0.23  0.01  0.03 -0.07
    2 C    6     6.26   2.01  0.66  0.29  0.11  2.07  0.98 -0.02  0.06  0.11
    3 H    1     0.90   0.77  0.16  0.01  0.03 -0.06
    4 H    1     0.81   0.76  0.08  0.00  0.03 -0.06
    5 C    6     5.33   2.01  0.68  0.14 -0.05  1.90  0.41 -0.02  0.24  0.01
    6 O    8     8.76   2.01  0.82  1.00  0.18  2.79  1.83  0.14  0.01 -0.01
    7 N    7     7.41   2.01  0.72  0.80 -0.15  2.46  1.44  0.06  0.05  0.02
    8 H    1     0.89   0.75  0.13 -0.01  0.06 -0.04
    9 C    6     6.20   2.01  0.66  0.14 -0.05  1.98  1.10  0.12  0.14  0.11
   10 H    1     1.03   0.78  0.21  0.01  0.03  0.01
   11 C    6     6.52   2.01  0.66  0.78 -0.05  2.06  0.85 -0.06  0.09  0.19
   12 H    1     0.87   0.77  0.16 -0.02  0.03 -0.06
   13 H    1     0.77   0.77  0.06 -0.00  0.03 -0.09
   14 C    6     4.70   2.01  0.68  0.03  0.11  1.91 -0.19  0.01  0.24 -0.11
   15 O    8     8.96   2.01  0.81  1.03  0.21  2.81  1.90  0.17  0.02  0.00
   16 N    7     7.11   2.01  0.72  0.73 -0.14  2.46  1.26  0.06  0.04 -0.03
   17 H    1     0.96   0.75  0.19 -0.00  0.05 -0.03
   18 H    1     0.86   0.72  0.13 -0.01  0.06 -0.04
   19 C    6     4.50   2.01  0.68  0.10 -0.08  1.88  0.15 -0.08  0.24 -0.39
   20 O    8     9.01   2.01  0.82  1.07  0.24  2.80  1.90  0.17  0.01  0.01
   21 N    7     7.43   2.01  0.72  0.85 -0.16  2.45  1.40  0.05  0.05  0.06
   22 H    1     0.97   0.76  0.20  0.01  0.06 -0.07
   23 C    6     6.47   2.01  0.66  0.13  0.02  1.99  1.34  0.16  0.14  0.02
   24 H    1     1.05   0.78  0.22 -0.01  0.03  0.02
   25 C    6     5.90   2.01  0.66  0.34  0.08  2.03  0.65 -0.03  0.09  0.07
   26 H    1     0.97   0.79  0.23 -0.01  0.03 -0.07
   27 H    1     1.01   0.77  0.28  0.01  0.03 -0.08
   28 C    6     6.68   2.01  0.66  0.66  0.14  2.05  0.89  0.02  0.09  0.16
   29 H    1     0.83   0.78  0.10  0.01  0.03 -0.09
   30 H    1     0.82   0.78  0.10  0.00  0.03 -0.08
   31 C    6     4.76   2.01  0.68  0.09  0.04  1.90 -0.17  0.05  0.24 -0.08
   32 O    8     8.87   2.01  0.81  1.03  0.18  2.81  1.87  0.15  0.02  0.00
   33 N    7     7.24   2.01  0.72  0.82 -0.09  2.47  1.26  0.02  0.04 -0.01
   34 H    1     0.98   0.77  0.20 -0.01  0.05 -0.03
   35 H    1     0.81   0.72  0.14 -0.02  0.06 -0.08
   36 C    6     4.38   2.01  0.68  0.05 -0.01  1.89 -0.16 -0.07  0.24 -0.24
   37 O    8     8.78   2.01  0.82  1.03  0.15  2.79  1.83  0.14  0.01 -0.01
   38 N    7     7.30   2.01  0.72  0.84 -0.11  2.47  1.25  0.10  0.04 -0.02
   39 H    1     0.91   0.73  0.19 -0.01  0.06 -0.06
   40 H    1     1.01   0.76  0.24 -0.00  0.05 -0.03

       Multipole analysis of the density wrt the origin
       ------------------------------------------------

     L   x y z        total         open         nuclear
     -   - - -        -----         ----         -------
     0   0 0 0      0.000000      0.000000    160.000000

     1   1 0 0      0.389470      0.000000     -0.000000
     1   0 1 0      1.538051      0.000000     -0.000000
     1   0 0 1     -0.430602      0.000000     -0.000000

     2   2 0 0   -101.773005      0.000000   1781.331382
     2   1 1 0     12.836905      0.000000     41.599644
     2   1 0 1      2.821808      0.000000     -6.591990
     2   0 2 0   -105.361289      0.000000   2409.189246
     2   0 1 1     -1.218966      0.000000     -1.044850
     2   0 0 2    -81.598527      0.000000   1077.491071


 Task  times  cpu:     7295.7s     wall:     7319.7s


                                NWChem Input Module
                                -------------------


 Summary of allocated global arrays
-----------------------------------
  No active global arrays


MA_summarize_allocated_blocks: starting scan ...
MA_summarize_allocated_blocks: scan completed: 0 heap blocks, 0 stack blocks
MA usage statistics:

	allocation statistics:
					      heap	     stack
					      ----	     -----
	current number of blocks	         0	         0
	maximum number of blocks	        16	        14
	current total bytes		         0	         0
	maximum total bytes		    148504	  31456216
	maximum total K-bytes		       149	     31457
	maximum total M-bytes		         1	        32


                                     CITATION
                                     --------
                Please cite the following reference when publishing
                           results obtained with NWChem:

          E. Apra, E. J. Bylaska, W. A. de Jong, N. Govind, K. Kowalski,
       T. P. Straatsma, M. Valiev, H. J. J. van Dam, Y. Alexeev, J. Anchell,
       V. Anisimov, F. W. Aquino, R. Atta-Fynn, J. Autschbach, N. P. Bauman,
     J. C. Becca, D. E. Bernholdt, K. Bhaskaran-Nair, S. Bogatko, P. Borowski,
         J. Boschen, J. Brabec, A. Bruner, E. Cauet, Y. Chen, G. N. Chuev,
      C. J. Cramer, J. Daily, M. J. O. Deegan, T. H. Dunning Jr., M. Dupuis,
   K. G. Dyall, G. I. Fann, S. A. Fischer, A. Fonari, H. Fruchtl, L. Gagliardi,
      J. Garza, N. Gawande, S. Ghosh, K. Glaesemann, A. W. Gotz, J. Hammond,
       V. Helms, E. D. Hermes, K. Hirao, S. Hirata, M. Jacquelin, L. Jensen,
   B. G. Johnson, H. Jonsson, R. A. Kendall, M. Klemm, R. Kobayashi, V. Konkov,
      S. Krishnamoorthy, M. Krishnan, Z. Lin, R. D. Lins, R. J. Littlefield,
      A. J. Logsdail, K. Lopata, W. Ma, A. V. Marenich, J. Martin del Campo,
   D. Mejia-Rodriguez, J. E. Moore, J. M. Mullin, T. Nakajima, D. R. Nascimento,
    J. A. Nichols, P. J. Nichols, J. Nieplocha, A. Otero-de-la-Roza, B. Palmer,
    A. Panyala, T. Pirojsirikul, B. Peng, R. Peverati, J. Pittner, L. Pollack,
   R. M. Richard, P. Sadayappan, G. C. Schatz, W. A. Shelton, D. W. Silverstein,
   D. M. A. Smith, T. A. Soares, D. Song, M. Swart, H. L. Taylor, G. S. Thomas,
            V. Tipparaju, D. G. Truhlar, K. Tsemekhman, T. Van Voorhis,
      A. Vazquez-Mayagoitia, P. Verma, O. Villa, A. Vishnu, K. D. Vogiatzis,
        D. Wang, J. H. Weare, M. J. Williamson, T. L. Windus, K. Wolinski,
        A. T. Wong, Q. Wu, C. Yang, Q. Yu, M. Zacharias, Z. Zhang, Y. Zhao,
                                and R. J. Harrison
                        "NWChem: Past, present, and future
                         J. Chem. Phys. 152, 184102 (2020)
                               doi:10.1063/5.0004997

                                      AUTHORS
                                      -------
  E. Apra, E. J. Bylaska, N. Govind, K. Kowalski, M. Valiev, D. Mejia-Rodriguez,
       A. Kunitsa, N. P. Bauman, A. Panyala, W. A. de Jong, T. P. Straatsma,
   H. J. J. van Dam, D. Wang, T. L. Windus, J. Hammond, J. Autschbach, A. Woods,
    K. Bhaskaran-Nair, J. Brabec, K. Lopata, S. A. Fischer, S. Krishnamoorthy,
     M. Jacquelin, W. Ma, M. Klemm, O. Villa, Y. Chen, V. Anisimov, F. Aquino,
     S. Hirata, M. T. Hackler, E. Hermes, L. Jensen, J. E. Moore, J. C. Becca,
      V. Konjkov, T. Risthaus, M. Malagoli, A. Marenich, A. Otero-de-la-Roza,
        J. Mullin, P. Nichols, R. Peverati, J. Pittner, Y. Zhao, P.-D. Fan,
        A. Fonari, M. J. Williamson, R. J. Harrison, J. R. Rehr, M. Dupuis,
     D. Silverstein, D. M. A. Smith, J. Nieplocha, V. Tipparaju, M. Krishnan,
     B. E. Van Kuiken, A. Vazquez-Mayagoitia, M. Swart, Q. Wu, T. Van Voorhis,
     A. A. Auer, M. Nooijen, L. D. Crosby, E. Brown, G. Cisneros, G. I. Fann,
   H. Fruchtl, J. Garza, K. Hirao, R. A. Kendall, J. A. Nichols, K. Tsemekhman,
    K. Wolinski, J. Anchell, D. E. Bernholdt, P. Borowski, T. Clark, D. Clerc,
   H. Dachsel, M. J. O. Deegan, K. Dyall, D. Elwood, E. Glendening, M. Gutowski,
   A. C. Hess, J. Jaffe, B. G. Johnson, J. Ju, R. Kobayashi, R. Kutteh, Z. Lin,
   R. Littlefield, X. Long, B. Meng, T. Nakajima, S. Niu, L. Pollack, M. Rosing,
   K. Glaesemann, G. Sandrone, M. Stave, H. Taylor, G. Thomas, J. H. van Lenthe,
                               A. T. Wong, Z. Zhang.

 Total times  cpu:     7295.8s     wall:     7320.2s
