export TMOUT=5400
export TMPDIR=/tmp
export PTMPDIR=/tmp/ptmp
 argument  1 = inputs/ASN_MET_2.nw



============================== echo of input deck ==============================
start ASN_MET_2
geometry
H          3.25300        9.56200        7.31300
C          3.40600        8.64700        7.88200
H          2.44900        8.15800        8.05700
H          3.87300        8.88400        8.83700
C          4.30900        7.71900        7.10700
O          5.40400        7.40400        7.55700
N          3.86400        7.30000        5.92400
H          2.94900        7.62200        5.63200
C          4.55800        6.37400        5.01200
H          4.93900        5.54400        5.60900
C          3.51400        5.80500        4.03000
H          3.99500        5.14000        3.31300
H          2.78300        5.21900        4.58700
C          2.76400        6.89700        3.28700
O          1.73900        7.37600        3.73600
N          3.28000        7.36700        2.17900
H          2.77900        8.10500        1.71900
H          4.21300        7.08000        1.91500
C          5.79300        6.98600        4.29900
O          5.95800        6.85200        3.08600
N          6.65200        7.68200        5.04600
H          6.46900        7.69600        6.04400
C          7.79500        8.48200        4.57300
H          7.48100        9.01700        3.67600
C          8.14400        9.53300        5.64500
H          8.44700        9.01700        6.55600
H          8.98100       10.14200        5.29900
C          6.96700       10.47300        5.95200
H          6.73600       11.03600        5.04700
H          6.08700        9.88900        6.21600
S          7.25700       11.65800        7.29400
C          7.26400       10.54300        8.72500
H          8.11300        9.86300        8.66300
H          7.34500       11.13000        9.64000
H          6.33900        9.96600        8.74800
C          9.02200        7.63800        4.15900
O         10.16100        7.96400        4.47000
N          8.82500        6.51800        3.47700
H          7.88800        6.27400        3.18700
H          9.62600        5.96700        3.21800
end

basis
 * library aug-cc-pvdz
end

echo

scf
 direct
end

task scf energy
================================================================================


                                         
                                         


             Northwest Computational Chemistry Package (NWChem) 7.2.0
             --------------------------------------------------------


                    Environmental Molecular Sciences Laboratory
                       Pacific Northwest National Laboratory
                                Richland, WA 99352

                              Copyright (c) 1994-2022
                       Pacific Northwest National Laboratory
                            Battelle Memorial Institute

             NWChem is an open-source computational chemistry package
                        distributed under the terms of the
                      Educational Community License (ECL) 2.0
             A copy of the license is included with this distribution
                              in the LICENSE.TXT file

                                  ACKNOWLEDGMENT
                                  --------------

            This software and its documentation were developed at the
            EMSL at Pacific Northwest National Laboratory, a multiprogram
            national laboratory, operated for the U.S. Department of Energy
            by Battelle under Contract Number DE-AC05-76RL01830. Support
            for this work was provided by the Department of Energy Office
            of Biological and Environmental Research, Office of Basic
            Energy Sciences, and the Office of Advanced Scientific Computing.


           Job information
           ---------------

    hostname        = nova21-swift-2
    program         = /opt/rit/el9/20230413/app/linux-rhel9-x86_64_v3/gcc-11.2.1/nwchem-7.2.0-oxtctbuhfuzyfaoziquq6bki22grib3g/bin/nwchem
    date            = Thu Jul 10 07:29:43 2025

    compiled        = Wed_May_17_23:46:39_2023
    source          = /tmp/root/spack-stage/spack-stage-nwchem-7.2.0-oxtctbuhfuzyfaoziquq6bki22grib3g/spack-src
    nwchem branch   = 7.2.0
    nwchem revision = d0d141fd
    ga revision     = 5.8.0
    use scalapack   = T
    input           = inputs/ASN_MET_2.nw
    prefix          = ASN_MET_2.
    data base       = ./ASN_MET_2.db
    status          = startup
    nproc           =        8
    time left       =     -1s



           Memory information
           ------------------

    heap     =   26214396 doubles =    200.0 Mbytes
    stack    =   26214401 doubles =    200.0 Mbytes
    global   =   52428800 doubles =    400.0 Mbytes (distinct from heap & stack)
    total    =  104857597 doubles =    800.0 Mbytes
    verify   = yes
    hardfail = no 


           Directory information
           ---------------------

  0 permanent = .
  0 scratch   = .




                                NWChem Input Module
                                -------------------



 Scaling coordinates for geometry "geometry" by  1.889725989
 (inverse scale =  0.529177249)

 C1  symmetry detected

          ------
          auto-z
          ------
  no constraints, skipping    0.0000000000000000     
  no constraints, skipping    0.0000000000000000     


                             Geometry "geometry" -> ""
                             -------------------------

 Output coordinates in angstroms (scale by  1.889725989 to convert to a.u.)

  No.       Tag          Charge          X              Y              Z
 ---- ---------------- ---------- -------------- -------------- --------------
    1 H                    1.0000    -3.56296722     0.34636500     0.33448433
    2 C                    6.0000    -3.50345134     0.46226993    -0.74598728
    3 H                    1.0000    -4.06751997     1.34139086    -1.05350633
    4 H                    1.0000    -3.91463016    -0.42158627    -1.23179918
    5 C                    6.0000    -2.05988758     0.62445628    -1.15468921
    6 O                    8.0000    -1.52374974    -0.21019063    -1.87348734
    7 N                    7.0000    -1.41710201     1.68698190    -0.67412600
    8 H                    1.0000    -1.94211199     2.31696764    -0.07943660
    9 C                    6.0000    -0.02084325     2.06117293    -0.95925505
   10 H                    1.0000     0.13856816     1.95353373    -2.03325310
   11 C                    6.0000     0.15135450     3.55249931    -0.60667237
   12 H                    1.0000     1.18364163     3.86113670    -0.77038322
   13 H                    1.0000    -0.48127407     4.14939636    -1.26355972
   14 C                    6.0000    -0.24950340     3.85765637     0.82622857
   15 O                    8.0000    -1.39343156     4.16174764     1.11017197
   16 N                    7.0000     0.64846586     3.72003098     1.76937781
   17 H                    1.0000     0.35357860     3.90350989     2.71098388
   18 H                    1.0000     1.53962297     3.30214727     1.53750242
   19 C                    6.0000     1.03575582     1.14999358    -0.27992554
   20 O                    8.0000     1.99400497     1.63036178     0.32633757
   21 N                    7.0000     0.85094835    -0.16916378    -0.35723050
   22 H                    1.0000     0.06679835    -0.47959946    -0.92152428
   23 C                    6.0000     1.61992116    -1.21614027     0.33753496
   24 H                    1.0000     1.81053192    -0.87231701     1.35482701
   25 C                    6.0000     0.75614475    -2.48933553     0.42945962
   26 H                    1.0000     0.54212143    -2.84114463    -0.57970359
   27 H                    1.0000     1.31052391    -3.26826592     0.95585984
   28 C                    6.0000    -0.56242816    -2.25215393     1.18330865
   29 H                    1.0000    -0.32236086    -1.98020507     2.21178642
   30 H                    1.0000    -1.10000469    -1.41885721     0.73410930
   31 S                   16.0000    -1.69223670    -3.67029017     1.22467621
   32 C                    6.0000    -2.22446748    -3.72074451    -0.50888076
   33 H                    1.0000    -1.37792327    -3.96065026    -1.15141724
   34 H                    1.0000    -2.99044939    -4.48695549    -0.62949357
   35 H                    1.0000    -2.63496778    -2.75258611    -0.79739732
   36 C                    6.0000     3.00679615    -1.49313052    -0.28625602
   37 O                    8.0000     3.42893657    -2.63339099    -0.43431520
   38 N                    7.0000     3.73795864    -0.46607869    -0.69722919
   39 H                    1.0000     3.40438618     0.47430669    -0.53595384
   40 H                    1.0000     4.63589850    -0.65182095    -1.11133888

      Atomic Mass 
      ----------- 

      H                  1.007825
      C                 12.000000
      O                 15.994910
      N                 14.003070
      S                 31.972070


 Effective nuclear repulsion energy (a.u.)    1835.9260208785

            Nuclear Dipole moment (a.u.) 
            ----------------------------
        X                 Y               Z
 ---------------- ---------------- ----------------
    -0.0000000000     0.0000000000     0.0000000000



                                Z-matrix (autoz)
                                -------- 

 Units are Angstrom for bonds and degrees for angles

      Type          Name      I     J     K     L     M      Value
      ----------- --------  ----- ----- ----- ----- ----- ----------
    1 Stretch                  1     2                       1.08830
    2 Stretch                  2     3                       1.08885
    3 Stretch                  2     4                       1.08917
    4 Stretch                  2     5                       1.50905
    5 Stretch                  5     6                       1.22505
    6 Stretch                  5     7                       1.33157
    7 Stretch                  7     8                       1.01300
    8 Stretch                  7     9                       1.47338
    9 Stretch                  9    10                       1.09109
   10 Stretch                  9    11                       1.54208
   11 Stretch                  9    19                       1.55182
   12 Stretch                 11    12                       1.08981
   13 Stretch                 11    13                       1.08996
   14 Stretch                 11    14                       1.51889
   15 Stretch                 14    15                       1.21724
   16 Stretch                 14    16                       1.30951
   17 Stretch                 16    17                       1.00362
   18 Stretch                 16    18                       1.01121
   19 Stretch                 19    20                       1.23148
   20 Stretch                 19    21                       1.33428
   21 Stretch                 21    22                       1.01474
   22 Stretch                 21    23                       1.47315
   23 Stretch                 23    24                       1.09061
   24 Stretch                 23    25                       1.54129
   25 Stretch                 23    36                       1.54572
   26 Stretch                 25    26                       1.08995
   27 Stretch                 25    27                       1.09141
   28 Stretch                 25    28                       1.53726
   29 Stretch                 28    29                       1.09058
   30 Stretch                 28    30                       1.08865
   31 Stretch                 28    31                       1.81364
   32 Stretch                 31    32                       1.81412
   33 Stretch                 32    33                       1.08952
   34 Stretch                 32    34                       1.09012
   35 Stretch                 32    35                       1.09045
   36 Stretch                 36    37                       1.22487
   37 Stretch                 36    38                       1.32602
   38 Stretch                 38    39                       1.01074
   39 Stretch                 38    40                       1.00612
   40 Bend                     1     2     3               109.75819
   41 Bend                     1     2     4               109.61885
   42 Bend                     1     2     5               109.42953
   43 Bend                     2     5     6               120.28766
   44 Bend                     2     5     7               116.73069
   45 Bend                     3     2     4               109.49039
   46 Bend                     3     2     5               109.40820
   47 Bend                     4     2     5               109.12008
   48 Bend                     5     7     8               117.25360
   49 Bend                     5     7     9               126.17629
   50 Bend                     6     5     7               122.96664
   51 Bend                     7     9    10               107.69140
   52 Bend                     7     9    11               107.88950
   53 Bend                     7     9    19               114.29282
   54 Bend                     8     7     9               116.53905
   55 Bend                     9    11    12               110.20062
   56 Bend                     9    11    13               109.08682
   57 Bend                     9    11    14               112.36605
   58 Bend                     9    19    20               121.08326
   59 Bend                     9    19    21               117.44160
   60 Bend                    10     9    11               107.70709
   61 Bend                    10     9    19               105.87281
   62 Bend                    11     9    19               113.06166
   63 Bend                    11    14    15               121.21666
   64 Bend                    11    14    16               118.51365
   65 Bend                    12    11    13               107.70745
   66 Bend                    12    11    14               109.56068
   67 Bend                    13    11    14               107.77922
   68 Bend                    14    16    17               117.06698
   69 Bend                    14    16    18               118.85500
   70 Bend                    15    14    16               120.17734
   71 Bend                    17    16    18               123.34134
   72 Bend                    19    21    22               116.21317
   73 Bend                    19    21    23               127.08687
   74 Bend                    20    19    21               121.46318
   75 Bend                    21    23    24               107.88386
   76 Bend                    21    23    25               108.82472
   77 Bend                    21    23    36               113.91488
   78 Bend                    22    21    23               116.62939
   79 Bend                    23    25    26               108.75099
   80 Bend                    23    25    27               109.49053
   81 Bend                    23    25    28               112.48824
   82 Bend                    23    36    37               121.65627
   83 Bend                    23    36    38               118.75141
   84 Bend                    24    23    25               107.62204
   85 Bend                    24    23    36               106.02814
   86 Bend                    25    23    36               112.26381
   87 Bend                    25    28    29               108.18712
   88 Bend                    25    28    30               109.83485
   89 Bend                    25    28    31               115.14264
   90 Bend                    26    25    27               108.41781
   91 Bend                    26    25    28               109.59756
   92 Bend                    27    25    28               108.01613
   93 Bend                    28    31    32               100.52785
   94 Bend                    29    28    30               107.87578
   95 Bend                    29    28    31               108.09557
   96 Bend                    30    28    31               107.47671
   97 Bend                    31    32    33               109.98191
   98 Bend                    31    32    34               109.35528
   99 Bend                    31    32    35               109.79071
  100 Bend                    33    32    34               109.02264
  101 Bend                    33    32    35               109.38786
  102 Bend                    34    32    35               109.28418
  103 Bend                    36    38    39               119.28749
  104 Bend                    36    38    40               118.46894
  105 Bend                    37    36    38               119.57321
  106 Bend                    39    38    40               122.13899
  107 Torsion                  1     2     5     6         116.71897
  108 Torsion                  1     2     5     7         -61.91323
  109 Torsion                  2     5     7     8          -0.75497
  110 Torsion                  2     5     7     9        -178.64853
  111 Torsion                  3     2     5     6        -122.99369
  112 Torsion                  3     2     5     7          58.37411
  113 Torsion                  4     2     5     6          -3.22210
  114 Torsion                  4     2     5     7         178.14570
  115 Torsion                  5     7     9    10          45.10195
  116 Torsion                  5     7     9    11         161.10573
  117 Torsion                  5     7     9    19         -72.21699
  118 Torsion                  6     5     7     8        -179.34719
  119 Torsion                  6     5     7     9           2.75924
  120 Torsion                  7     9    11    12         177.98636
  121 Torsion                  7     9    11    13         -63.96234
  122 Torsion                  7     9    11    14          55.49524
  123 Torsion                  7     9    19    20        -132.64306
  124 Torsion                  7     9    19    21          46.11641
  125 Torsion                  8     7     9    10        -132.80491
  126 Torsion                  8     7     9    11         -16.80113
  127 Torsion                  8     7     9    19         109.87615
  128 Torsion                  9    11    14    15         -89.47670
  129 Torsion                  9    11    14    16          87.03441
  130 Torsion                  9    19    21    22           4.70499
  131 Torsion                  9    19    21    23        -172.11701
  132 Torsion                 10     9    11    12         -66.02013
  133 Torsion                 10     9    11    13          52.03118
  134 Torsion                 10     9    11    14         171.48875
  135 Torsion                 10     9    19    20         108.99940
  136 Torsion                 10     9    19    21         -72.24113
  137 Torsion                 11     9    19    20          -8.69340
  138 Torsion                 11     9    19    21         170.06606
  139 Torsion                 11    14    16    17        -178.39870
  140 Torsion                 11    14    16    18          -7.89848
  141 Torsion                 12    11     9    19          50.59355
  142 Torsion                 12    11    14    15         147.67133
  143 Torsion                 12    11    14    16         -35.81756
  144 Torsion                 13    11     9    19         168.64486
  145 Torsion                 13    11    14    15          30.74072
  146 Torsion                 13    11    14    16        -152.74816
  147 Torsion                 14    11     9    19         -71.89757
  148 Torsion                 15    14    16    17          -1.85017
  149 Torsion                 15    14    16    18         168.65005
  150 Torsion                 19    21    23    24          40.75107
  151 Torsion                 19    21    23    25         157.24410
  152 Torsion                 19    21    23    36         -76.66621
  153 Torsion                 20    19    21    22        -176.54055
  154 Torsion                 20    19    21    23           6.63744
  155 Torsion                 21    23    25    26          62.52627
  156 Torsion                 21    23    25    27        -179.17393
  157 Torsion                 21    23    25    28         -59.06767
  158 Torsion                 21    23    36    37        -137.28767
  159 Torsion                 21    23    36    38          41.11510
  160 Torsion                 22    21    23    24        -136.05943
  161 Torsion                 22    21    23    25         -19.56641
  162 Torsion                 22    21    23    36         106.52329
  163 Torsion                 23    25    28    29         -63.44016
  164 Torsion                 23    25    28    30          54.07462
  165 Torsion                 23    25    28    31         175.53904
  166 Torsion                 23    36    38    39           4.26421
  167 Torsion                 23    36    38    40        -179.37354
  168 Torsion                 24    23    25    26         179.18686
  169 Torsion                 24    23    25    27         -62.51335
  170 Torsion                 24    23    25    28          57.59291
  171 Torsion                 24    23    36    37         104.22866
  172 Torsion                 24    23    36    38         -77.36857
  173 Torsion                 25    23    36    37         -13.02712
  174 Torsion                 25    23    36    38         165.37565
  175 Torsion                 25    28    31    32         -70.37779
  176 Torsion                 26    25    23    36         -64.51248
  177 Torsion                 26    25    28    29         175.44907
  178 Torsion                 26    25    28    30         -67.03614
  179 Torsion                 26    25    28    31          54.42828
  180 Torsion                 27    25    23    36          53.78732
  181 Torsion                 27    25    28    29          57.51492
  182 Torsion                 27    25    28    30         175.02970
  183 Torsion                 27    25    28    31         -63.50588
  184 Torsion                 28    25    23    36         173.89358
  185 Torsion                 28    31    32    33          65.18808
  186 Torsion                 28    31    32    34        -175.12071
  187 Torsion                 28    31    32    35         -55.22561
  188 Torsion                 29    28    31    32         168.55158
  189 Torsion                 30    28    31    32          52.35599
  190 Torsion                 37    36    38    39        -177.29902
  191 Torsion                 37    36    38    40          -0.93677


            XYZ format geometry
            -------------------
    40
 geometry
 H                    -3.56296722     0.34636500     0.33448433
 C                    -3.50345134     0.46226993    -0.74598728
 H                    -4.06751997     1.34139086    -1.05350633
 H                    -3.91463016    -0.42158627    -1.23179918
 C                    -2.05988758     0.62445628    -1.15468921
 O                    -1.52374974    -0.21019063    -1.87348734
 N                    -1.41710201     1.68698190    -0.67412600
 H                    -1.94211199     2.31696764    -0.07943660
 C                    -0.02084325     2.06117293    -0.95925505
 H                     0.13856816     1.95353373    -2.03325310
 C                     0.15135450     3.55249931    -0.60667237
 H                     1.18364163     3.86113670    -0.77038322
 H                    -0.48127407     4.14939636    -1.26355972
 C                    -0.24950340     3.85765637     0.82622857
 O                    -1.39343156     4.16174764     1.11017197
 N                     0.64846586     3.72003098     1.76937781
 H                     0.35357860     3.90350989     2.71098388
 H                     1.53962297     3.30214727     1.53750242
 C                     1.03575582     1.14999358    -0.27992554
 O                     1.99400497     1.63036178     0.32633757
 N                     0.85094835    -0.16916378    -0.35723050
 H                     0.06679835    -0.47959946    -0.92152428
 C                     1.61992116    -1.21614027     0.33753496
 H                     1.81053192    -0.87231701     1.35482701
 C                     0.75614475    -2.48933553     0.42945962
 H                     0.54212143    -2.84114463    -0.57970359
 H                     1.31052391    -3.26826592     0.95585984
 C                    -0.56242816    -2.25215393     1.18330865
 H                    -0.32236086    -1.98020507     2.21178642
 H                    -1.10000469    -1.41885721     0.73410930
 S                    -1.69223670    -3.67029017     1.22467621
 C                    -2.22446748    -3.72074451    -0.50888076
 H                    -1.37792327    -3.96065026    -1.15141724
 H                    -2.99044939    -4.48695549    -0.62949357
 H                    -2.63496778    -2.75258611    -0.79739732
 C                     3.00679615    -1.49313052    -0.28625602
 O                     3.42893657    -2.63339099    -0.43431520
 N                     3.73795864    -0.46607869    -0.69722919
 H                     3.40438618     0.47430669    -0.53595384
 H                     4.63589850    -0.65182095    -1.11133888

 ==============================================================================
                                internuclear distances
 ------------------------------------------------------------------------------
       center one      |      center two      | atomic units |  angstroms
 ------------------------------------------------------------------------------
    2 C                |   1 H                |     2.05659  |     1.08830
    3 H                |   2 C                |     2.05763  |     1.08885
    4 H                |   2 C                |     2.05823  |     1.08917
    5 C                |   2 C                |     2.85168  |     1.50905
    6 O                |   5 C                |     2.31501  |     1.22505
    7 N                |   5 C                |     2.51630  |     1.33157
    8 H                |   7 N                |     1.91430  |     1.01300
    9 C                |   7 N                |     2.78429  |     1.47338
   10 H                |   9 C                |     2.06185  |     1.09109
   11 C                |   9 C                |     2.91411  |     1.54208
   12 H                |  11 C                |     2.05943  |     1.08981
   13 H                |  11 C                |     2.05972  |     1.08996
   14 C                |  11 C                |     2.87028  |     1.51889
   15 O                |  14 C                |     2.30025  |     1.21724
   16 N                |  14 C                |     2.47462  |     1.30951
   17 H                |  16 N                |     1.89656  |     1.00362
   18 H                |  16 N                |     1.91092  |     1.01121
   19 C                |   9 C                |     2.93251  |     1.55182
   20 O                |  19 C                |     2.32717  |     1.23148
   21 N                |  19 C                |     2.52143  |     1.33428
   22 H                |  21 N                |     1.91757  |     1.01474
   23 C                |  21 N                |     2.78385  |     1.47315
   24 H                |  23 C                |     2.06095  |     1.09061
   25 C                |  23 C                |     2.91262  |     1.54129
   26 H                |  25 C                |     2.05970  |     1.08995
   27 H                |  25 C                |     2.06246  |     1.09141
   28 C                |  25 C                |     2.90501  |     1.53726
   29 H                |  28 C                |     2.06089  |     1.09058
   30 H                |  28 C                |     2.05724  |     1.08865
   31 S                |  28 C                |     3.42728  |     1.81364
   32 C                |  31 S                |     3.42819  |     1.81412
   33 H                |  32 C                |     2.05889  |     1.08952
   34 H                |  32 C                |     2.06002  |     1.09012
   35 H                |  32 C                |     2.06065  |     1.09045
   36 C                |  23 C                |     2.92099  |     1.54572
   37 O                |  36 C                |     2.31468  |     1.22487
   38 N                |  36 C                |     2.50582  |     1.32602
   39 H                |  38 N                |     1.91003  |     1.01074
   40 H                |  38 N                |     1.90130  |     1.00612
 ------------------------------------------------------------------------------
                         number of included internuclear distances:         39
 ==============================================================================



 ==============================================================================
                                 internuclear angles
 ------------------------------------------------------------------------------
        center 1       |       center 2       |       center 3       |  degrees
 ------------------------------------------------------------------------------
    1 H                |   2 C                |   3 H                |   109.76
    1 H                |   2 C                |   4 H                |   109.62
    1 H                |   2 C                |   5 C                |   109.43
    3 H                |   2 C                |   4 H                |   109.49
    3 H                |   2 C                |   5 C                |   109.41
    4 H                |   2 C                |   5 C                |   109.12
    2 C                |   5 C                |   6 O                |   120.29
    2 C                |   5 C                |   7 N                |   116.73
    6 O                |   5 C                |   7 N                |   122.97
    5 C                |   7 N                |   8 H                |   117.25
    5 C                |   7 N                |   9 C                |   126.18
    8 H                |   7 N                |   9 C                |   116.54
    7 N                |   9 C                |  10 H                |   107.69
    7 N                |   9 C                |  11 C                |   107.89
    7 N                |   9 C                |  19 C                |   114.29
   10 H                |   9 C                |  11 C                |   107.71
   10 H                |   9 C                |  19 C                |   105.87
   11 C                |   9 C                |  19 C                |   113.06
    9 C                |  11 C                |  12 H                |   110.20
    9 C                |  11 C                |  13 H                |   109.09
    9 C                |  11 C                |  14 C                |   112.37
   12 H                |  11 C                |  13 H                |   107.71
   12 H                |  11 C                |  14 C                |   109.56
   13 H                |  11 C                |  14 C                |   107.78
   11 C                |  14 C                |  15 O                |   121.22
   11 C                |  14 C                |  16 N                |   118.51
   15 O                |  14 C                |  16 N                |   120.18
   14 C                |  16 N                |  17 H                |   117.07
   14 C                |  16 N                |  18 H                |   118.85
   17 H                |  16 N                |  18 H                |   123.34
    9 C                |  19 C                |  20 O                |   121.08
    9 C                |  19 C                |  21 N                |   117.44
   20 O                |  19 C                |  21 N                |   121.46
   19 C                |  21 N                |  22 H                |   116.21
   19 C                |  21 N                |  23 C                |   127.09
   22 H                |  21 N                |  23 C                |   116.63
   21 N                |  23 C                |  24 H                |   107.88
   21 N                |  23 C                |  25 C                |   108.82
   21 N                |  23 C                |  36 C                |   113.91
   24 H                |  23 C                |  25 C                |   107.62
   24 H                |  23 C                |  36 C                |   106.03
   25 C                |  23 C                |  36 C                |   112.26
   23 C                |  25 C                |  26 H                |   108.75
   23 C                |  25 C                |  27 H                |   109.49
   23 C                |  25 C                |  28 C                |   112.49
   26 H                |  25 C                |  27 H                |   108.42
   26 H                |  25 C                |  28 C                |   109.60
   27 H                |  25 C                |  28 C                |   108.02
   25 C                |  28 C                |  29 H                |   108.19
   25 C                |  28 C                |  30 H                |   109.83
   25 C                |  28 C                |  31 S                |   115.14
   29 H                |  28 C                |  30 H                |   107.88
   29 H                |  28 C                |  31 S                |   108.10
   30 H                |  28 C                |  31 S                |   107.48
   28 C                |  31 S                |  32 C                |   100.53
   31 S                |  32 C                |  33 H                |   109.98
   31 S                |  32 C                |  34 H                |   109.36
   31 S                |  32 C                |  35 H                |   109.79
   33 H                |  32 C                |  34 H                |   109.02
   33 H                |  32 C                |  35 H                |   109.39
   34 H                |  32 C                |  35 H                |   109.28
   23 C                |  36 C                |  37 O                |   121.66
   23 C                |  36 C                |  38 N                |   118.75
   37 O                |  36 C                |  38 N                |   119.57
   36 C                |  38 N                |  39 H                |   119.29
   36 C                |  38 N                |  40 H                |   118.47
   39 H                |  38 N                |  40 H                |   122.14
 ------------------------------------------------------------------------------
                            number of included internuclear angles:         67
 ==============================================================================



  library name resolved from: environment
  library file name is: </opt/rit/el9/20230413/app/linux-rhel9-x86_64_v3/gcc-11.2.1/nwchem-7.2.0-oxtctbuhfuzyfaoziquq6bki22grib3g/share/nwchem/libraries/>
  


 Summary of "ao basis" -> "" (cartesian)
 ------------------------------------------------------------------------------
       Tag                 Description            Shells   Functions and Types
 ---------------- ------------------------------  ------  ---------------------
 *                        aug-cc-pvdz                 on all atoms 


                      Basis "ao basis" -> "ao basis" (cartesian)
                      -----
  H (Hydrogen)
  ------------
            Exponent  Coefficients 
       -------------- ---------------------------------------------------------
  1 S  1.30100000E+01  0.019685
  1 S  1.96200000E+00  0.137977
  1 S  4.44600000E-01  0.478148

  2 S  1.22000000E-01  1.000000

  3 S  2.97400000E-02  1.000000

  4 P  7.27000000E-01  1.000000

  5 P  1.41000000E-01  1.000000

  C (Carbon)
  ----------
            Exponent  Coefficients 
       -------------- ---------------------------------------------------------
  1 S  6.66500000E+03  0.000692
  1 S  1.00000000E+03  0.005329
  1 S  2.28000000E+02  0.027077
  1 S  6.47100000E+01  0.101718
  1 S  2.10600000E+01  0.274740
  1 S  7.49500000E+00  0.448564
  1 S  2.79700000E+00  0.285074
  1 S  5.21500000E-01  0.015204

  2 S  6.66500000E+03 -0.000146
  2 S  1.00000000E+03 -0.001154
  2 S  2.28000000E+02 -0.005725
  2 S  6.47100000E+01 -0.023312
  2 S  2.10600000E+01 -0.063955
  2 S  7.49500000E+00 -0.149981
  2 S  2.79700000E+00 -0.127262
  2 S  5.21500000E-01  0.544529

  3 S  1.59600000E-01  1.000000

  4 S  4.69000000E-02  1.000000

  5 P  9.43900000E+00  0.038109
  5 P  2.00200000E+00  0.209480
  5 P  5.45600000E-01  0.508557

  6 P  1.51700000E-01  1.000000

  7 P  4.04100000E-02  1.000000

  8 D  5.50000000E-01  1.000000

  9 D  1.51000000E-01  1.000000

  O (Oxygen)
  ----------
            Exponent  Coefficients 
       -------------- ---------------------------------------------------------
  1 S  1.17200000E+04  0.000710
  1 S  1.75900000E+03  0.005470
  1 S  4.00800000E+02  0.027837
  1 S  1.13700000E+02  0.104800
  1 S  3.70300000E+01  0.283062
  1 S  1.32700000E+01  0.448719
  1 S  5.02500000E+00  0.270952
  1 S  1.01300000E+00  0.015458

  2 S  1.17200000E+04 -0.000160
  2 S  1.75900000E+03 -0.001263
  2 S  4.00800000E+02 -0.006267
  2 S  1.13700000E+02 -0.025716
  2 S  3.70300000E+01 -0.070924
  2 S  1.32700000E+01 -0.165411
  2 S  5.02500000E+00 -0.116955
  2 S  1.01300000E+00  0.557368

  3 S  3.02300000E-01  1.000000

  4 S  7.89600000E-02  1.000000

  5 P  1.77000000E+01  0.043018
  5 P  3.85400000E+00  0.228913
  5 P  1.04600000E+00  0.508728

  6 P  2.75300000E-01  1.000000

  7 P  6.85600000E-02  1.000000

  8 D  1.18500000E+00  1.000000

  9 D  3.32000000E-01  1.000000

  N (Nitrogen)
  ------------
            Exponent  Coefficients 
       -------------- ---------------------------------------------------------
  1 S  9.04600000E+03  0.000700
  1 S  1.35700000E+03  0.005389
  1 S  3.09300000E+02  0.027406
  1 S  8.77300000E+01  0.103207
  1 S  2.85600000E+01  0.278723
  1 S  1.02100000E+01  0.448540
  1 S  3.83800000E+00  0.278238
  1 S  7.46600000E-01  0.015440

  2 S  9.04600000E+03 -0.000153
  2 S  1.35700000E+03 -0.001208
  2 S  3.09300000E+02 -0.005992
  2 S  8.77300000E+01 -0.024544
  2 S  2.85600000E+01 -0.067459
  2 S  1.02100000E+01 -0.158078
  2 S  3.83800000E+00 -0.121831
  2 S  7.46600000E-01  0.549003

  3 S  2.24800000E-01  1.000000

  4 S  6.12400000E-02  1.000000

  5 P  1.35500000E+01  0.039919
  5 P  2.91700000E+00  0.217169
  5 P  7.97300000E-01  0.510319

  6 P  2.18500000E-01  1.000000

  7 P  5.61100000E-02  1.000000

  8 D  8.17000000E-01  1.000000

  9 D  2.30000000E-01  1.000000

  S (Sulphur)
  -----------
            Exponent  Coefficients 
       -------------- ---------------------------------------------------------
  1 S  1.10800000E+05  0.000248
  1 S  1.66100000E+04  0.001920
  1 S  3.78100000E+03  0.009962
  1 S  1.07100000E+03  0.040298
  1 S  3.49800000E+02  0.128604
  1 S  1.26300000E+02  0.303480
  1 S  4.92600000E+01  0.421432
  1 S  2.01600000E+01  0.230781
  1 S  5.72000000E+00  0.017897
  1 S  2.18200000E+00 -0.002975
  1 S  4.32700000E-01  0.000850

  2 S  1.10800000E+05 -0.000069
  2 S  1.66100000E+04 -0.000528
  2 S  3.78100000E+03 -0.002797
  2 S  1.07100000E+03 -0.011265
  2 S  3.49800000E+02 -0.038883
  2 S  1.26300000E+02 -0.099503
  2 S  4.92600000E+01 -0.199740
  2 S  2.01600000E+01 -0.123360
  2 S  5.72000000E+00  0.513194
  2 S  2.18200000E+00  0.607120
  2 S  4.32700000E-01  0.039675

  3 S  1.10800000E+05  0.000020
  3 S  1.66100000E+04  0.000153
  3 S  3.78100000E+03  0.000810
  3 S  1.07100000E+03  0.003290
  3 S  3.49800000E+02  0.011297
  3 S  1.26300000E+02  0.029639
  3 S  4.92600000E+01  0.059985
  3 S  2.01600000E+01  0.041325
  3 S  5.72000000E+00 -0.207474
  3 S  2.18200000E+00 -0.392889
  3 S  4.32700000E-01  0.632840

  4 S  1.57000000E-01  1.000000

  5 S  5.07000000E-02  1.000000

  6 P  3.99700000E+02  0.004475
  6 P  9.41900000E+01  0.034171
  6 P  2.97500000E+01  0.144250
  6 P  1.07700000E+01  0.353928
  6 P  4.11900000E+00  0.459085
  6 P  1.62500000E+00  0.206383
  6 P  4.72600000E-01  0.010214

  7 P  3.99700000E+02 -0.001163
  7 P  9.41900000E+01 -0.008657
  7 P  2.97500000E+01 -0.039089
  7 P  1.07700000E+01 -0.093463
  7 P  4.11900000E+00 -0.147994
  7 P  1.62500000E+00  0.030190
  7 P  4.72600000E-01  0.561573

  8 P  1.40700000E-01  1.000000

  9 P  3.99000000E-02  1.000000

 10 D  4.79000000E-01  1.000000

 11 D  1.52000000E-01  1.000000



 Summary of "ao basis" -> "ao basis" (cartesian)
 ------------------------------------------------------------------------------
       Tag                 Description            Shells   Functions and Types
 ---------------- ------------------------------  ------  ---------------------
 H                        aug-cc-pvdz                5        9   3s2p
 C                        aug-cc-pvdz                9       25   4s3p2d
 O                        aug-cc-pvdz                9       25   4s3p2d
 N                        aug-cc-pvdz                9       25   4s3p2d
 S                        aug-cc-pvdz               11       29   5s4p2d


                                 NWChem SCF Module
                                 -----------------



  ao basis        = "ao basis"
  functions       =   684
  atoms           =    40
  closed shells   =    81
  open shells     =     0
  charge          =   0.00
  wavefunction    = RHF 
  input vectors   = atomic
  output vectors  = ./ASN_MET_2.movecs
  use symmetry    = F
  symmetry adapt  = F


 Summary of "ao basis" -> "ao basis" (cartesian)
 ------------------------------------------------------------------------------
       Tag                 Description            Shells   Functions and Types
 ---------------- ------------------------------  ------  ---------------------
 H                        aug-cc-pvdz                5        9   3s2p
 C                        aug-cc-pvdz                9       25   4s3p2d
 O                        aug-cc-pvdz                9       25   4s3p2d
 N                        aug-cc-pvdz                9       25   4s3p2d
 S                        aug-cc-pvdz               11       29   5s4p2d



 Forming initial guess at       0.8s


 !! The overlap matrix has   5 vectors deemed linearly dependent with
    eigenvalues:
 2.07D-06 2.97D-06 6.31D-06 7.69D-06 9.77D-06


      Superposition of Atomic Density Guess
      -------------------------------------

 Sum of atomic energies:       -1338.08087253

      Non-variational initial energy
      ------------------------------

 Total energy =   -1350.807910
 1-e energy   =   -5480.144273
 2-e energy   =    2293.410342
 HOMO         =      -0.264525
 LUMO         =       0.004043


 Starting SCF solution at     322.2s



 ----------------------------------------------
         Quadratically convergent ROHF

 Convergence threshold     :          1.000E-04
 Maximum no. of iterations :           30
 Final Fock-matrix accuracy:          1.000E-10
 ----------------------------------------------


              iter       energy          gnorm     gmax       time
             ----- ------------------- --------- --------- --------
                 1    -1342.7434460396  2.69D+00  1.23D-01    684.3
                 2    -1343.1274406777  9.01D-01  4.21D-02   1409.8
                 3    -1343.1993973646  6.90D-02  3.78D-03   2413.4
                 4    -1343.2001322197  4.25D-03  3.40D-04   3736.6
                 5    -1343.2001357372  1.02D-05  6.33D-07   6019.3


       Final RHF  results 
       ------------------ 

         Total SCF energy =  -1343.200135737187
      One-electron energy =  -5493.260262335443
      Two-electron energy =   2314.134105719728
 Nuclear repulsion energy =   1835.926020878529

        Time for solution =   5698.4s


             Final eigenvalues
             -----------------

              1      
    1  -91.9489
    2  -20.5643
    3  -20.5565
    4  -20.5388
    5  -20.5213
    6  -15.6264
    7  -15.6141
    8  -15.6001
    9  -15.5849
   10  -11.3927
   11  -11.3850
   12  -11.3695
   13  -11.3562
   14  -11.3371
   15  -11.3077
   16  -11.2788
   17  -11.2694
   18  -11.2619
   19  -11.2581
   20  -11.2468
   21   -8.9494
   22   -6.6317
   23   -6.6303
   24   -6.6283
   25   -1.4285
   26   -1.4190
   27   -1.4100
   28   -1.3835
   29   -1.2780
   30   -1.2626
   31   -1.2377
   32   -1.2131
   33   -1.1053
   34   -1.0921
   35   -1.0404
   36   -1.0222
   37   -0.9734
   38   -0.9406
   39   -0.8776
   40   -0.8471
   41   -0.8254
   42   -0.8074
   43   -0.7971
   44   -0.7913
   45   -0.7604
   46   -0.7471
   47   -0.7379
   48   -0.7140
   49   -0.7036
   50   -0.6879
   51   -0.6741
   52   -0.6678
   53   -0.6436
   54   -0.6319
   55   -0.6294
   56   -0.6238
   57   -0.6087
   58   -0.6014
   59   -0.5995
   60   -0.5960
   61   -0.5899
   62   -0.5785
   63   -0.5704
   64   -0.5640
   65   -0.5594
   66   -0.5510
   67   -0.5455
   68   -0.5406
   69   -0.5191
   70   -0.5154
   71   -0.4844
   72   -0.4781
   73   -0.4554
   74   -0.4508
   75   -0.4393
   76   -0.4272
   77   -0.4243
   78   -0.4221
   79   -0.4061
   80   -0.4000
   81   -0.3368
   82    0.0252
   83    0.0325
   84    0.0334
   85    0.0415
   86    0.0473
   87    0.0503
   88    0.0539
   89    0.0571
   90    0.0610
   91    0.0674

                       ROHF Final Molecular Orbital Analysis
                       -------------------------------------

 Vector   25  Occ=2.000000D+00  E=-1.428464D+00
              MO Center=  6.0D-01,  1.1D+00, -3.5D-01, r^2= 4.1D+00
   Bfn.  Coefficient  Atom+Function         Bfn.  Coefficient  Atom+Function  
  ----- ------------  ---------------      ----- ------------  ---------------
   334      0.311748  20 O  s               333      0.288931  20 O  s         
   308      0.200782  19 C  s                80      0.187980   6 O  s         
    79      0.181301   6 O  s         

 Vector   26  Occ=2.000000D+00  E=-1.418957D+00
              MO Center= -6.7D-01,  5.4D-01, -1.1D+00, r^2= 4.1D+00
   Bfn.  Coefficient  Atom+Function         Bfn.  Coefficient  Atom+Function  
  ----- ------------  ---------------      ----- ------------  ---------------
    80      0.306845   6 O  s                79      0.300734   6 O  s         
   334     -0.219247  20 O  s                54      0.205016   5 C  s         
   333     -0.202824  20 O  s                12      0.165041   2 C  s         

 Vector   27  Occ=2.000000D+00  E=-1.409963D+00
              MO Center= -8.0D-01,  3.9D+00,  1.0D+00, r^2= 1.3D+00
   Bfn.  Coefficient  Atom+Function         Bfn.  Coefficient  Atom+Function  
  ----- ------------  ---------------      ----- ------------  ---------------
   241      0.369779  15 O  s               240      0.346721  15 O  s         
   215      0.246054  14 C  s         

 Vector   28  Occ=2.000000D+00  E=-1.383479D+00
              MO Center=  3.3D+00, -2.0D+00, -4.0D-01, r^2= 1.0D+00
   Bfn.  Coefficient  Atom+Function         Bfn.  Coefficient  Atom+Function  
  ----- ------------  ---------------      ----- ------------  ---------------
   619      0.373351  37 O  s               618      0.350557  37 O  s         
   593      0.246094  36 C  s         

 Vector   29  Occ=2.000000D+00  E=-1.277999D+00
              MO Center= -9.1D-01,  1.2D+00, -7.7D-01, r^2= 2.8D+00
   Bfn.  Coefficient  Atom+Function         Bfn.  Coefficient  Atom+Function  
  ----- ------------  ---------------      ----- ------------  ---------------
   105      0.369677   7 N  s               104      0.311141   7 N  s         
    80     -0.208364   6 O  s               359      0.182697  21 N  s         
    79     -0.170495   6 O  s                58      0.152130   5 C  py        

 Vector   30  Occ=2.000000D+00  E=-1.262593D+00
              MO Center=  7.0D-01,  1.9D-01, -3.0D-01, r^2= 3.2D+00
   Bfn.  Coefficient  Atom+Function         Bfn.  Coefficient  Atom+Function  
  ----- ------------  ---------------      ----- ------------  ---------------
   359      0.379358  21 N  s               358      0.319947  21 N  s         
   105     -0.204477   7 N  s               334     -0.176935  20 O  s         
   312     -0.151747  19 C  py        

 Vector   31  Occ=2.000000D+00  E=-1.237655D+00
              MO Center=  2.7D-01,  3.7D+00,  1.5D+00, r^2= 1.5D+00
   Bfn.  Coefficient  Atom+Function         Bfn.  Coefficient  Atom+Function  
  ----- ------------  ---------------      ----- ------------  ---------------
   265      0.364792  16 N  s               266      0.336203  16 N  s         
   241     -0.216907  15 O  s               218      0.206946  14 C  px        
   240     -0.187075  15 O  s               298      0.160311  18 H  s         
   173     -0.158977  11 C  s               289      0.153574  17 H  s         

 Vector   32  Occ=2.000000D+00  E=-1.213118D+00
              MO Center=  3.5D+00, -8.0D-01, -5.9D-01, r^2= 1.5D+00
   Bfn.  Coefficient  Atom+Function         Bfn.  Coefficient  Atom+Function  
  ----- ------------  ---------------      ----- ------------  ---------------
   644      0.394620  38 N  s               643      0.368514  38 N  s         
   619     -0.215070  37 O  s               597      0.207771  36 C  py        
   618     -0.177729  37 O  s               667      0.165660  39 H  s         
   676      0.157482  40 H  s               595      0.153049  36 C  s         

 Vector   33  Occ=2.000000D+00  E=-1.105317D+00
              MO Center= -1.3D-01, -1.4D-01, -6.9D-03, r^2= 8.6D+00
   Bfn.  Coefficient  Atom+Function         Bfn.  Coefficient  Atom+Function  
  ----- ------------  ---------------      ----- ------------  ---------------
   138      0.166463   9 C  s               426     -0.165426  25 C  s         
   469     -0.157962  28 C  s         

 Vector   34  Occ=2.000000D+00  E=-1.092089D+00
              MO Center= -4.5D-01,  7.3D-02,  1.0D-02, r^2= 1.0D+01
   Bfn.  Coefficient  Atom+Function         Bfn.  Coefficient  Atom+Function  
  ----- ------------  ---------------      ----- ------------  ---------------
   427      0.223871  25 C  s               172      0.187580  11 C  s         
   469      0.169559  28 C  s               138      0.163227   9 C  s         
   173      0.152375  11 C  s         

 Vector   35  Occ=2.000000D+00  E=-1.040448D+00
              MO Center= -2.7D-01, -2.0D+00,  2.2D-01, r^2= 8.1D+00
   Bfn.  Coefficient  Atom+Function         Bfn.  Coefficient  Atom+Function  
  ----- ------------  ---------------      ----- ------------  ---------------
   513      0.226233  31 S  s               392     -0.202651  23 C  s         
   541      0.186572  32 C  s         

 Vector   36  Occ=2.000000D+00  E=-1.022232D+00
              MO Center= -2.5D+00,  1.0D+00, -7.0D-01, r^2= 4.8D+00
   Bfn.  Coefficient  Atom+Function         Bfn.  Coefficient  Atom+Function  
  ----- ------------  ---------------      ----- ------------  ---------------
    11      0.322085   2 C  s               173      0.267331  11 C  s         
    57     -0.166904   5 C  px               56      0.150339   5 C  s         
   172      0.151000  11 C  s         

 Vector   37  Occ=2.000000D+00  E=-9.733505D-01
              MO Center= -4.7D-01, -1.6D+00,  4.4D-02, r^2= 9.5D+00
   Bfn.  Coefficient  Atom+Function         Bfn.  Coefficient  Atom+Function  
  ----- ------------  ---------------      ----- ------------  ---------------
   541      0.216675  32 C  s               595     -0.203730  36 C  s         
   503     -0.194353  30 H  s               469     -0.179558  28 C  s         
   432      0.174312  25 C  px              427     -0.171694  25 C  s         
   471      0.161538  28 C  s               173      0.155093  11 C  s         

 Vector   38  Occ=2.000000D+00  E=-9.405820D-01
              MO Center= -1.2D-01,  1.2D+00, -2.6D-01, r^2= 9.4D+00
   Bfn.  Coefficient  Atom+Function         Bfn.  Coefficient  Atom+Function  
  ----- ------------  ---------------      ----- ------------  ---------------
   173      0.305971  11 C  s               138     -0.205187   9 C  s         
   180      0.168663  11 C  pz              172      0.155025  11 C  s         

 Vector   39  Occ=2.000000D+00  E=-8.776151D-01
              MO Center=  1.9D-01, -2.3D+00,  2.0D-01, r^2= 7.2D+00
   Bfn.  Coefficient  Atom+Function         Bfn.  Coefficient  Atom+Function  
  ----- ------------  ---------------      ----- ------------  ---------------
   393      0.271322  23 C  s               426     -0.214368  25 C  s         
   513      0.190327  31 S  s               514      0.162402  31 S  s         
   541     -0.159102  32 C  s         

 Vector   40  Occ=2.000000D+00  E=-8.470575D-01
              MO Center= -9.4D-02,  1.0D+00, -3.2D-01, r^2= 6.9D+00
   Bfn.  Coefficient  Atom+Function         Bfn.  Coefficient  Atom+Function  
  ----- ------------  ---------------      ----- ------------  ---------------
   139      0.275889   9 C  s               393      0.222452  23 C  s         
   108     -0.212835   7 N  py              362      0.180814  21 N  py        
   308      0.169981  19 C  s               427      0.165976  25 C  s         
    54      0.155438   5 C  s         

 Vector   41  Occ=2.000000D+00  E=-8.253509D-01
              MO Center= -4.1D-01,  1.8D+00, -2.4D-01, r^2= 6.2D+00
   Bfn.  Coefficient  Atom+Function         Bfn.  Coefficient  Atom+Function  
  ----- ------------  ---------------      ----- ------------  ---------------
   108      0.209469   7 N  py              128      0.196361   8 H  s         
   145     -0.186466   9 C  py              105      0.182989   7 N  s         
   217     -0.166851  14 C  s               109      0.151481   7 N  pz        

 Vector   42  Occ=2.000000D+00  E=-8.073827D-01
              MO Center=  2.9D-01,  2.3D+00,  5.6D-01, r^2= 7.2D+00
   Bfn.  Coefficient  Atom+Function         Bfn.  Coefficient  Atom+Function  
  ----- ------------  ---------------      ----- ------------  ---------------
   270      0.215496  16 N  pz              362      0.184260  21 N  py        
   268      0.182018  16 N  px              309      0.182719  19 C  s         
   215     -0.174942  14 C  s               289      0.161065  17 H  s         

 Vector   43  Occ=2.000000D+00  E=-7.970700D-01
              MO Center=  4.3D-01, -2.1D+00,  2.3D-01, r^2= 9.5D+00
   Bfn.  Coefficient  Atom+Function         Bfn.  Coefficient  Atom+Function  
  ----- ------------  ---------------      ----- ------------  ---------------
   514      0.399554  31 S  s               513      0.254889  31 S  s         
   470     -0.201050  28 C  s               647      0.175732  38 N  py        
   595      0.163841  36 C  s               398     -0.160629  23 C  px        
   469     -0.154152  28 C  s         

 Vector   44  Occ=2.000000D+00  E=-7.912767D-01
              MO Center=  1.1D+00, -1.1D+00,  6.9D-02, r^2= 8.1D+00
   Bfn.  Coefficient  Atom+Function         Bfn.  Coefficient  Atom+Function  
  ----- ------------  ---------------      ----- ------------  ---------------
   514     -0.203275  31 S  s               309      0.187419  19 C  s         
   398     -0.186893  23 C  px              647      0.165560  38 N  py        
   382     -0.154970  22 H  s               427     -0.151016  25 C  s         

 Vector   45  Occ=2.000000D+00  E=-7.603743D-01
              MO Center=  6.9D-01,  2.3D+00,  5.3D-01, r^2= 7.2D+00
   Bfn.  Coefficient  Atom+Function         Bfn.  Coefficient  Atom+Function  
  ----- ------------  ---------------      ----- ------------  ---------------
   268      0.235071  16 N  px              298      0.233653  18 H  s         
   289     -0.163197  17 H  s               145     -0.152946   9 C  py        

 Vector   46  Occ=2.000000D+00  E=-7.470902D-01
              MO Center=  1.1D+00,  1.4D+00,  9.2D-02, r^2= 9.0D+00
   Bfn.  Coefficient  Atom+Function         Bfn.  Coefficient  Atom+Function  
  ----- ------------  ---------------      ----- ------------  ---------------
   144      0.189226   9 C  px              667     -0.172920  39 H  s         
   268     -0.171444  16 N  px              298     -0.169808  18 H  s         
   647     -0.169821  38 N  py              312      0.153889  19 C  py        
   336     -0.154394  20 O  px        

 Vector   47  Occ=2.000000D+00  E=-7.379299D-01
              MO Center=  1.5D+00,  2.4D-01, -4.5D-01, r^2= 8.0D+00
   Bfn.  Coefficient  Atom+Function         Bfn.  Coefficient  Atom+Function  
  ----- ------------  ---------------      ----- ------------  ---------------
   309     -0.292220  19 C  s               144      0.287631   9 C  px        
   647      0.261272  38 N  py              667      0.237242  39 H  s         
   174      0.211357  11 C  s               139      0.175775   9 C  s         
   596     -0.162740  36 C  px              393      0.156765  23 C  s         

 Vector   48  Occ=2.000000D+00  E=-7.139576D-01
              MO Center= -7.0D-01,  5.8D-01, -5.5D-01, r^2= 9.2D+00
   Bfn.  Coefficient  Atom+Function         Bfn.  Coefficient  Atom+Function  
  ----- ------------  ---------------      ----- ------------  ---------------
    82      0.221381   6 O  px              173      0.181665  11 C  s         
    17     -0.178793   2 C  px               13      0.162924   2 C  s         
   383      0.158833  22 H  s                14     -0.156685   2 C  px        
    85      0.154517   6 O  px               56      0.151611   5 C  s         
    80      0.150708   6 O  s         

 Vector   49  Occ=2.000000D+00  E=-7.036306D-01
              MO Center= -5.8D-01,  2.0D+00, -3.1D-01, r^2= 7.4D+00
   Bfn.  Coefficient  Atom+Function         Bfn.  Coefficient  Atom+Function  
  ----- ------------  ---------------      ----- ------------  ---------------
   173      0.213191  11 C  s               270      0.203965  16 N  pz        
   145     -0.180555   9 C  py               80     -0.178104   6 O  s         
   289      0.172864  17 H  s               143      0.171719   9 C  pz        
    84      0.160754   6 O  pz               58     -0.156360   5 C  py        
   107      0.151920   7 N  px        

 Vector   50  Occ=2.000000D+00  E=-6.878999D-01
              MO Center=  9.7D-01,  3.2D-01, -3.3D-02, r^2= 7.7D+00
   Bfn.  Coefficient  Atom+Function         Bfn.  Coefficient  Atom+Function  
  ----- ------------  ---------------      ----- ------------  ---------------
   334      0.227223  20 O  s               336      0.223360  20 O  px        
   399     -0.181769  23 C  py        

 Vector   51  Occ=2.000000D+00  E=-6.741350D-01
              MO Center=  1.4D+00,  2.5D-01, -1.9D-01, r^2= 1.1D+01
   Bfn.  Coefficient  Atom+Function         Bfn.  Coefficient  Atom+Function  
  ----- ------------  ---------------      ----- ------------  ---------------
   676      0.186940  40 H  s               646      0.185724  38 N  px        
   173     -0.161785  11 C  s               597     -0.157671  36 C  py        
   619     -0.150083  37 O  s         

 Vector   52  Occ=2.000000D+00  E=-6.678125D-01
              MO Center=  1.3D-01,  1.4D+00, -2.5D-02, r^2= 1.2D+01
   Bfn.  Coefficient  Atom+Function         Bfn.  Coefficient  Atom+Function  
  ----- ------------  ---------------      ----- ------------  ---------------
   243      0.187815  15 O  px              241     -0.177297  15 O  s         
   218     -0.168791  14 C  px              245     -0.150950  15 O  pz        

 Vector   53  Occ=2.000000D+00  E=-6.436336D-01
              MO Center= -1.1D+00, -4.5D-01, -1.4D-01, r^2= 8.5D+00
   Bfn.  Coefficient  Atom+Function         Bfn.  Coefficient  Atom+Function  
  ----- ------------  ---------------      ----- ------------  ---------------
    59      0.172840   5 C  pz              474     -0.169056  28 C  pz        
    83     -0.164732   6 O  py               16      0.152176   2 C  pz        

 Vector   54  Occ=2.000000D+00  E=-6.319116D-01
              MO Center= -9.9D-01,  3.7D-01, -2.7D-01, r^2= 9.3D+00
   Bfn.  Coefficient  Atom+Function         Bfn.  Coefficient  Atom+Function  
  ----- ------------  ---------------      ----- ------------  ---------------
    35      0.178129   3 H  s               311     -0.176924  19 C  px        
    12      0.161004   2 C  s                16     -0.160606   2 C  pz        
   338      0.151798  20 O  pz        

 Vector   55  Occ=2.000000D+00  E=-6.293516D-01
              MO Center= -2.2D-01,  1.3D+00,  1.4D-01, r^2= 1.0D+01
   Bfn.  Coefficient  Atom+Function         Bfn.  Coefficient  Atom+Function  
  ----- ------------  ---------------      ----- ------------  ---------------
   176      0.201106  11 C  py              219      0.169565  14 C  py        
   179      0.163590  11 C  py              142     -0.156671   9 C  py        
   244      0.152746  15 O  py              315      0.150329  19 C  py        

 Vector   56  Occ=2.000000D+00  E=-6.238278D-01
              MO Center=  7.0D-01,  1.1D+00, -4.3D-02, r^2= 8.5D+00
   Bfn.  Coefficient  Atom+Function         Bfn.  Coefficient  Atom+Function  
  ----- ------------  ---------------      ----- ------------  ---------------
   361      0.191720  21 N  px              336      0.167925  20 O  px        
   313     -0.164232  19 C  pz              142     -0.150261   9 C  py        

 Vector   57  Occ=2.000000D+00  E=-6.087085D-01
              MO Center= -1.3D+00,  4.8D-01, -8.2D-01, r^2= 6.4D+00
   Bfn.  Coefficient  Atom+Function         Bfn.  Coefficient  Atom+Function  
  ----- ------------  ---------------      ----- ------------  ---------------
    83      0.289318   6 O  py               57      0.235968   5 C  px        
    17     -0.190291   2 C  px               84      0.190370   6 O  pz        
    14     -0.180504   2 C  px               80     -0.167829   6 O  s         
    86      0.164925   6 O  py              128      0.157564   8 H  s         
    59     -0.152908   5 C  pz        

 Vector   58  Occ=2.000000D+00  E=-6.014339D-01
              MO Center=  1.1D+00, -1.9D+00, -1.8D-01, r^2= 1.2D+01
   Bfn.  Coefficient  Atom+Function         Bfn.  Coefficient  Atom+Function  
  ----- ------------  ---------------      ----- ------------  ---------------
   622      0.291176  37 O  py              597     -0.201512  36 C  py        
   594      0.194046  36 C  s               619     -0.181247  37 O  s         
   575      0.166689  34 H  s               395     -0.157837  23 C  px        
   383     -0.156145  22 H  s               398     -0.155808  23 C  px        
   625      0.150960  37 O  py        

 Vector   59  Occ=2.000000D+00  E=-5.995183D-01
              MO Center= -3.1D-01,  2.6D+00,  5.0D-01, r^2= 9.1D+00
   Bfn.  Coefficient  Atom+Function         Bfn.  Coefficient  Atom+Function  
  ----- ------------  ---------------      ----- ------------  ---------------
   243      0.332086  15 O  px              218     -0.218982  14 C  px        
   220      0.193161  14 C  pz              177     -0.192164  11 C  pz        
   241     -0.187895  15 O  s               246      0.166103  15 O  px        
   217      0.155878  14 C  s               173      0.154251  11 C  s         

 Vector   60  Occ=2.000000D+00  E=-5.960394D-01
              MO Center=  3.0D-01, -2.1D+00, -1.4D-01, r^2= 1.1D+01
   Bfn.  Coefficient  Atom+Function         Bfn.  Coefficient  Atom+Function  
  ----- ------------  ---------------      ----- ------------  ---------------
   544      0.233204  32 C  px              622      0.225069  37 O  py        
   427     -0.211939  25 C  s               565      0.212824  33 H  s         
   470      0.206079  28 C  s               597     -0.159742  36 C  py        
   503     -0.154726  30 H  s         

 Vector   61  Occ=2.000000D+00  E=-5.898746D-01
              MO Center= -1.7D+00, -3.4D-01, -5.7D-01, r^2= 1.2D+01
   Bfn.  Coefficient  Atom+Function         Bfn.  Coefficient  Atom+Function  
  ----- ------------  ---------------      ----- ------------  ---------------
    45      0.324136   4 H  s                44      0.237893   4 H  s         
    15     -0.227318   2 C  py              545      0.190509  32 C  py        
   583      0.177218  35 H  s                56     -0.157522   5 C  s         

 Vector   62  Occ=2.000000D+00  E=-5.785336D-01
              MO Center= -2.0D+00, -1.6D+00, -3.7D-01, r^2= 1.0D+01
   Bfn.  Coefficient  Atom+Function         Bfn.  Coefficient  Atom+Function  
  ----- ------------  ---------------      ----- ------------  ---------------
   545      0.290320  32 C  py              583      0.264047  35 H  s         
    13      0.230421   2 C  s                56      0.223432   5 C  s         
    63      0.213420   5 C  px               45     -0.202893   4 H  s         
    44     -0.186639   4 H  s               470     -0.181534  28 C  s         
    15      0.179451   2 C  py              318     -0.174705  19 C  py        

 Vector   63  Occ=2.000000D+00  E=-5.704036D-01
              MO Center=  1.8D-01,  5.1D-01, -4.0D-01, r^2= 1.5D+01
   Bfn.  Coefficient  Atom+Function         Bfn.  Coefficient  Atom+Function  
  ----- ------------  ---------------      ----- ------------  ---------------
   197      0.221812  12 H  s               205     -0.207482  13 H  s         
   175      0.193781  11 C  px              217      0.193384  14 C  s         
   575      0.187619  34 H  s               598      0.151276  36 C  pz        

 Vector   64  Occ=2.000000D+00  E=-5.639507D-01
              MO Center= -2.3D-01,  7.5D-01, -2.6D-01, r^2= 1.1D+01
   Bfn.  Coefficient  Atom+Function         Bfn.  Coefficient  Atom+Function  
  ----- ------------  ---------------      ----- ------------  ---------------
   173      0.245864  11 C  s               338     -0.202056  20 O  pz        
   393      0.184467  23 C  s                15      0.172907   2 C  py        
   427     -0.169119  25 C  s               107      0.154602   7 N  px        
   341     -0.153532  20 O  pz        

 Vector   65  Occ=2.000000D+00  E=-5.594401D-01
              MO Center=  3.6D-01,  2.4D-01, -3.9D-01, r^2= 1.3D+01
   Bfn.  Coefficient  Atom+Function         Bfn.  Coefficient  Atom+Function  
  ----- ------------  ---------------      ----- ------------  ---------------
   205      0.213045  13 H  s               175     -0.193457  11 C  px        
   575      0.191718  34 H  s               173      0.186026  11 C  s         
   544     -0.162757  32 C  px              197     -0.157380  12 H  s         

 Vector   66  Occ=2.000000D+00  E=-5.510371D-01
              MO Center= -1.5D+00,  7.0D-01, -7.7D-01, r^2= 7.4D+00
   Bfn.  Coefficient  Atom+Function         Bfn.  Coefficient  Atom+Function  
  ----- ------------  ---------------      ----- ------------  ---------------
    84     -0.232644   6 O  pz               16      0.220605   2 C  pz        
   173      0.220974  11 C  s                 1      0.215473   1 H  s         
    36     -0.196321   3 H  s                56      0.190658   5 C  s         
    35     -0.166484   3 H  s                87     -0.164595   6 O  pz        
   109     -0.165371   7 N  pz                2      0.161173   1 H  s         

 Vector   67  Occ=2.000000D+00  E=-5.455127D-01
              MO Center= -1.2D-01,  2.2D+00, -1.0D-01, r^2= 8.1D+00
   Bfn.  Coefficient  Atom+Function         Bfn.  Coefficient  Atom+Function  
  ----- ------------  ---------------      ----- ------------  ---------------
   179     -0.239489  11 C  py              176     -0.237555  11 C  py        
   142      0.236289   9 C  py              244      0.194069  15 O  py        
   143      0.156385   9 C  pz              219      0.152140  14 C  py        

 Vector   68  Occ=2.000000D+00  E=-5.406063D-01
              MO Center=  8.5D-01, -1.5D+00,  2.6D-01, r^2= 8.2D+00
   Bfn.  Coefficient  Atom+Function         Bfn.  Coefficient  Atom+Function  
  ----- ------------  ---------------      ----- ------------  ---------------
   470      0.251808  28 C  s               474     -0.212296  28 C  pz        
   494     -0.191659  29 H  s               431      0.183754  25 C  pz        
   475      0.181096  28 C  px              648     -0.172744  38 N  pz        
   429     -0.170276  25 C  px              493     -0.158206  29 H  s         

 Vector   69  Occ=2.000000D+00  E=-5.191083D-01
              MO Center=  2.5D-01, -2.3D+00,  2.6D-01, r^2= 6.8D+00
   Bfn.  Coefficient  Atom+Function         Bfn.  Coefficient  Atom+Function  
  ----- ------------  ---------------      ----- ------------  ---------------
   451      0.302210  26 H  s               470     -0.248567  28 C  s         
   431     -0.228331  25 C  pz              450      0.220112  26 H  s         
   416      0.199436  24 H  s               417      0.194438  24 H  s         
   471     -0.189408  28 C  s               397      0.168756  23 C  pz        
   460     -0.165588  27 H  s               521      0.157509  31 S  pz        

 Vector   70  Occ=2.000000D+00  E=-5.153989D-01
              MO Center=  4.4D-01, -2.1D+00,  5.9D-01, r^2= 4.6D+00
   Bfn.  Coefficient  Atom+Function         Bfn.  Coefficient  Atom+Function  
  ----- ------------  ---------------      ----- ------------  ---------------
   470      0.363804  28 C  s               475      0.294462  28 C  px        
   460     -0.291748  27 H  s               459     -0.278662  27 H  s         
   503     -0.276308  30 H  s               472      0.266185  28 C  px        
   430      0.246473  25 C  py              429     -0.229340  25 C  px        
   502     -0.207369  30 H  s               393     -0.174543  23 C  s         

 Vector   71  Occ=2.000000D+00  E=-4.844367D-01
              MO Center= -5.0D-01, -2.6D+00,  6.1D-01, r^2= 5.1D+00
   Bfn.  Coefficient  Atom+Function         Bfn.  Coefficient  Atom+Function  
  ----- ------------  ---------------      ----- ------------  ---------------
   493      0.227493  29 H  s               503     -0.218591  30 H  s         
   494      0.213517  29 H  s               450      0.206869  26 H  s         
   460     -0.196459  27 H  s               549      0.194855  32 C  pz        
   546      0.193078  32 C  pz              474      0.175898  28 C  pz        
   519     -0.167399  31 S  px              473      0.159829  28 C  py        

 Vector   72  Occ=2.000000D+00  E=-4.781035D-01
              MO Center=  4.0D-01,  8.3D-01, -3.7D-01, r^2= 6.5D+00
   Bfn.  Coefficient  Atom+Function         Bfn.  Coefficient  Atom+Function  
  ----- ------------  ---------------      ----- ------------  ---------------
   337      0.390790  20 O  py              340      0.318561  20 O  py        
    84      0.197763   6 O  pz               83     -0.194805   6 O  py        
   109     -0.164191   7 N  pz               86     -0.155944   6 O  py        
    87      0.152599   6 O  pz        

 Vector   73  Occ=2.000000D+00  E=-4.554216D-01
              MO Center=  1.9D-01, -1.5D-01, -7.2D-01, r^2= 9.1D+00
   Bfn.  Coefficient  Atom+Function         Bfn.  Coefficient  Atom+Function  
  ----- ------------  ---------------      ----- ------------  ---------------
    82      0.331910   6 O  px               85      0.274427   6 O  px        
   621      0.228859  37 O  px              624      0.184460  37 O  px        
   364      0.181004  21 N  px              361      0.173561  21 N  px        
   393      0.159840  23 C  s               338      0.153696  20 O  pz        

 Vector   74  Occ=2.000000D+00  E=-4.507674D-01
              MO Center= -1.2D-01,  7.1D-02, -7.6D-01, r^2= 9.0D+00
   Bfn.  Coefficient  Atom+Function         Bfn.  Coefficient  Atom+Function  
  ----- ------------  ---------------      ----- ------------  ---------------
    82      0.344232   6 O  px               85      0.274338   6 O  px        
   363      0.208594  21 N  pz              621     -0.196184  37 O  px        
   360     -0.187269  21 N  s                83      0.184306   6 O  py        
   366      0.179333  21 N  pz               13     -0.174104   2 C  s         
   338     -0.172121  20 O  pz              105     -0.162448   7 N  s         

 Vector   75  Occ=2.000000D+00  E=-4.393007D-01
              MO Center= -6.3D-01,  3.4D+00,  7.5D-01, r^2= 6.6D+00
   Bfn.  Coefficient  Atom+Function         Bfn.  Coefficient  Atom+Function  
  ----- ------------  ---------------      ----- ------------  ---------------
   245      0.504926  15 O  pz              248      0.397499  15 O  pz        
   223     -0.192679  14 C  pz              177      0.182353  11 C  pz        
   173     -0.170919  11 C  s         

 Vector   76  Occ=2.000000D+00  E=-4.271997D-01
              MO Center= -1.3D+00, -2.6D+00,  9.7D-01, r^2= 8.1D+00
   Bfn.  Coefficient  Atom+Function         Bfn.  Coefficient  Atom+Function  
  ----- ------------  ---------------      ----- ------------  ---------------
   514      0.397723  31 S  s               521      0.292795  31 S  pz        
   575     -0.232550  34 H  s               520     -0.230584  31 S  py        
   549     -0.208404  32 C  pz              494     -0.205176  29 H  s         
   546     -0.191756  32 C  pz              524      0.186448  31 S  pz        
   476      0.185195  28 C  py              473      0.177494  28 C  py        

 Vector   77  Occ=2.000000D+00  E=-4.243048D-01
              MO Center= -3.6D-01,  2.7D+00,  6.0D-01, r^2= 7.4D+00
   Bfn.  Coefficient  Atom+Function         Bfn.  Coefficient  Atom+Function  
  ----- ------------  ---------------      ----- ------------  ---------------
   244      0.313836  15 O  py              269     -0.313314  16 N  py        
   272     -0.270159  16 N  py              247      0.250076  15 O  py        
   109      0.214037   7 N  pz              112      0.195679   7 N  pz        

 Vector   78  Occ=2.000000D+00  E=-4.221271D-01
              MO Center= -2.5D-01,  1.5D+00, -4.9D-02, r^2= 8.6D+00
   Bfn.  Coefficient  Atom+Function         Bfn.  Coefficient  Atom+Function  
  ----- ------------  ---------------      ----- ------------  ---------------
   109      0.238928   7 N  pz              269      0.232879  16 N  py        
   112      0.207385   7 N  pz              272      0.202695  16 N  py        
    84     -0.180995   6 O  pz              108     -0.181299   7 N  py        
   111     -0.177085   7 N  py              337      0.176791  20 O  py        
   244     -0.169619  15 O  py              173     -0.162963  11 C  s         

 Vector   79  Occ=2.000000D+00  E=-4.061381D-01
              MO Center=  3.1D+00, -1.3D+00, -4.5D-01, r^2= 4.2D+00
   Bfn.  Coefficient  Atom+Function         Bfn.  Coefficient  Atom+Function  
  ----- ------------  ---------------      ----- ------------  ---------------
   623      0.396118  37 O  pz              626      0.307564  37 O  pz        
   648     -0.306021  38 N  pz              651     -0.264769  38 N  pz        
   646     -0.193777  38 N  px              649     -0.158964  38 N  px        

 Vector   80  Occ=2.000000D+00  E=-3.999695D-01
              MO Center=  2.5D+00, -1.0D+00, -2.7D-01, r^2= 4.9D+00
   Bfn.  Coefficient  Atom+Function         Bfn.  Coefficient  Atom+Function  
  ----- ------------  ---------------      ----- ------------  ---------------
   621      0.366795  37 O  px              624      0.282878  37 O  px        
   648     -0.251845  38 N  pz              363      0.220278  21 N  pz        
   366      0.208882  21 N  pz              651     -0.202525  38 N  pz        
   361     -0.187976  21 N  px              364     -0.167556  21 N  px        
   594      0.160866  36 C  s         

 Vector   81  Occ=2.000000D+00  E=-3.367716D-01
              MO Center= -1.6D+00, -3.5D+00,  1.1D+00, r^2= 2.4D+00
   Bfn.  Coefficient  Atom+Function         Bfn.  Coefficient  Atom+Function  
  ----- ------------  ---------------      ----- ------------  ---------------
   519      0.392499  31 S  px              522      0.364884  31 S  px        
   523     -0.329599  31 S  py              520     -0.327729  31 S  py        
   584      0.207264  35 H  s               432      0.191953  25 C  px        
   470      0.189645  28 C  s               398      0.168334  23 C  px        
   594     -0.153810  36 C  s         

 Vector   82  Occ=0.000000D+00  E= 2.516269D-02
              MO Center=  5.0D-01,  3.1D+00, -9.3D-01, r^2= 3.0D+01
   Bfn.  Coefficient  Atom+Function         Bfn.  Coefficient  Atom+Function  
  ----- ------------  ---------------      ----- ------------  ---------------
   318      4.054823  19 C  py              595      2.919322  36 C  s         
   360      2.346996  21 N  s               504      2.013283  30 H  s         
   182      1.802688  11 C  py              164     -1.782066  10 H  s         
   207     -1.629072  13 H  s               384      1.603612  22 H  s         
    13      1.551547   2 C  s               217      1.534588  14 C  s         

 Vector   83  Occ=0.000000D+00  E= 3.250525D-02
              MO Center= -7.1D-01,  2.0D+00,  1.1D+00, r^2= 3.6D+01
   Bfn.  Coefficient  Atom+Function         Bfn.  Coefficient  Atom+Function  
  ----- ------------  ---------------      ----- ------------  ---------------
   318      2.961047  19 C  py              471      2.869447  28 C  s         
   267      2.846932  16 N  s               148     -2.427518   9 C  py        
   226     -2.250373  14 C  pz              207     -2.190644  13 H  s         
   183     -2.173507  11 C  pz              495      1.975407  29 H  s         
   147     -1.945851   9 C  px               37     -1.877977   3 H  s         

 Vector   84  Occ=0.000000D+00  E= 3.342130D-02
              MO Center= -1.6D+00,  8.5D-01, -2.9D-01, r^2= 4.0D+01
   Bfn.  Coefficient  Atom+Function         Bfn.  Coefficient  Atom+Function  
  ----- ------------  ---------------      ----- ------------  ---------------
    63      4.757205   5 C  px              504     -3.271346  30 H  s         
   148      3.242928   9 C  py              174     -2.797043  11 C  s         
   595      2.440697  36 C  s                 3      2.411141   1 H  s         
    56      2.302850   5 C  s               645     -2.284730  38 N  s         
   147      2.198088   9 C  px              495      2.148822  29 H  s         

 Vector   85  Occ=0.000000D+00  E= 4.146997D-02
              MO Center= -1.4D-01, -3.6D-01, -1.5D+00, r^2= 5.0D+01
   Bfn.  Coefficient  Atom+Function         Bfn.  Coefficient  Atom+Function  
  ----- ------------  ---------------      ----- ------------  ---------------
   207      2.850420  13 H  s               576     -2.698794  34 H  s         
   318     -2.410446  19 C  py              402     -2.169416  23 C  py        
    46     -1.918694   4 H  s               678     -1.911173  40 H  s         
   645     -1.712569  38 N  s               602      1.601798  36 C  px        
   148     -1.413691   9 C  py              182     -1.420708  11 C  py        

 Vector   86  Occ=0.000000D+00  E= 4.734966D-02
              MO Center= -3.6D-01, -4.4D-01, -2.7D-01, r^2= 5.3D+01
   Bfn.  Coefficient  Atom+Function         Bfn.  Coefficient  Atom+Function  
  ----- ------------  ---------------      ----- ------------  ---------------
   576      3.338499  34 H  s               401      2.510314  23 C  px        
   504      2.440945  30 H  s               198      2.232866  12 H  s         
    37     -2.010373   3 H  s               148     -1.814895   9 C  py        
   495     -1.802167  29 H  s               595     -1.798956  36 C  s         
   678     -1.719132  40 H  s               551      1.586835  32 C  py        

[...]
   217      9.688590  14 C  s                13      9.640368   2 C  s         

 Vector  200  Occ=0.000000D+00  E= 4.461590D-01
              MO Center= -1.5D+00, -1.7D-01, -1.4D-01, r^2= 2.3D+01
   Bfn.  Coefficient  Atom+Function         Bfn.  Coefficient  Atom+Function  
  ----- ------------  ---------------      ----- ------------  ---------------
    56     13.408674   5 C  s               217    -12.583553  14 C  s         
   106    -11.122779   7 N  s                13     10.524194   2 C  s         
   504      9.993173  30 H  s               148      9.050266   9 C  py        
   595     -9.070887  36 C  s                12      7.573010   2 C  s         
     2     -7.077591   1 H  s               645      7.098224  38 N  s         

 Vector  201  Occ=0.000000D+00  E= 4.477115D-01
              MO Center= -1.8D-01,  6.7D-01,  2.4D-01, r^2= 2.3D+01
   Bfn.  Coefficient  Atom+Function         Bfn.  Coefficient  Atom+Function  
  ----- ------------  ---------------      ----- ------------  ---------------
   318     22.414880  19 C  py              360     16.483273  21 N  s         
   310    -14.158959  19 C  s                56    -11.980825   5 C  s         
   174    -10.660540  11 C  s               435     10.266433  25 C  px        
   471      8.823567  28 C  s               140     -7.735893   9 C  s         
   106      7.220227   7 N  s               402      7.253451  23 C  py        

 Vector  202  Occ=0.000000D+00  E= 4.485353D-01
              MO Center= -2.6D-01, -2.3D-01, -1.8D-01, r^2= 2.4D+01
   Bfn.  Coefficient  Atom+Function         Bfn.  Coefficient  Atom+Function  
  ----- ------------  ---------------      ----- ------------  ---------------
   318     18.297588  19 C  py               56    -13.956955   5 C  s         
   217     12.105698  14 C  s               543     12.117133  32 C  s         
   360     10.439042  21 N  s               310     -8.781005  19 C  s         
   595      8.816097  36 C  s               267     -8.710781  16 N  s         
   384      7.991320  22 H  s               542      7.663237  32 C  s         

 Vector  203  Occ=0.000000D+00  E= 4.510807D-01
              MO Center=  2.3D-01, -2.1D-01,  9.5D-02, r^2= 2.0D+01
   Bfn.  Coefficient  Atom+Function         Bfn.  Coefficient  Atom+Function  
  ----- ------------  ---------------      ----- ------------  ---------------
   360     11.599742  21 N  s               595    -11.626672  36 C  s         
    56    -10.536314   5 C  s               471      9.638021  28 C  s         
   148     -9.323824   9 C  py               12     -8.903147   2 C  s         
   368     -8.671122  21 N  py              401      7.782496  23 C  px        
   480     -7.004491  28 C  pz              645      6.831083  38 N  s         

 Vector  204  Occ=0.000000D+00  E= 4.562546D-01
              MO Center= -6.4D-01, -1.4D+00,  3.4D-02, r^2= 2.2D+01
   Bfn.  Coefficient  Atom+Function         Bfn.  Coefficient  Atom+Function  
  ----- ------------  ---------------      ----- ------------  ---------------
   217     14.323973  14 C  s               318     12.401349  19 C  py        
   267    -10.687940  16 N  s               148    -10.614023   9 C  py        
   435      8.622545  25 C  px              401     -8.543584  23 C  px        
    56     -7.750638   5 C  s               543     -6.893089  32 C  s         
   113     -6.637073   7 N  px               12     -6.110320   2 C  s         

 Vector  205  Occ=0.000000D+00  E= 4.597745D-01
              MO Center= -5.2D-01, -1.6D-01,  4.5D-02, r^2= 2.4D+01
   Bfn.  Coefficient  Atom+Function         Bfn.  Coefficient  Atom+Function  
  ----- ------------  ---------------      ----- ------------  ---------------
   318     12.673944  19 C  py               12     12.603382   2 C  s         
   217    -11.147294  14 C  s               402     -9.229556  23 C  py        
   645     -8.910122  38 N  s               106     -8.261475   7 N  s         
   595      8.222703  36 C  s                56      7.469618   5 C  s         
   319      7.415059  19 C  pz              603      7.043070  36 C  py        

 Vector  206  Occ=0.000000D+00  E= 4.628827D-01
              MO Center= -4.5D-01, -3.2D-01, -3.8D-02, r^2= 2.4D+01
   Bfn.  Coefficient  Atom+Function         Bfn.  Coefficient  Atom+Function  
  ----- ------------  ---------------      ----- ------------  ---------------
   310     12.489213  19 C  s               318    -12.492127  19 C  py        
    56     10.437855   5 C  s               645      9.632218  38 N  s         
   368     -8.800577  21 N  py              427      8.533687  25 C  s         
   471     -8.372589  28 C  s               504     -7.688071  30 H  s         
   317      7.507754  19 C  px              402     -6.808470  23 C  py        

 Vector  207  Occ=0.000000D+00  E= 4.682340D-01
              MO Center=  3.5D-01, -1.7D-01, -3.5D-01, r^2= 2.1D+01
   Bfn.  Coefficient  Atom+Function         Bfn.  Coefficient  Atom+Function  
  ----- ------------  ---------------      ----- ------------  ---------------
   217    -14.658470  14 C  s               148     13.619469   9 C  py        
   368     10.879117  21 N  py              147      9.512675   9 C  px        
   403     -8.310158  23 C  pz               56      7.963269   5 C  s         
   319      7.439221  19 C  pz              183      7.197956  11 C  pz        
   367     -7.221613  21 N  px              471      7.110135  28 C  s         

 Vector  208  Occ=0.000000D+00  E= 4.740845D-01
              MO Center= -1.4D+00, -8.7D-01, -4.2D-01, r^2= 2.2D+01
   Bfn.  Coefficient  Atom+Function         Bfn.  Coefficient  Atom+Function  
  ----- ------------  ---------------      ----- ------------  ---------------
   174     18.053604  11 C  s               148    -14.636825   9 C  py        
   106    -10.671665   7 N  s                56    -10.494685   5 C  s         
   585     -9.630183  35 H  s               147     -8.394896   9 C  px        
   394      7.478044  23 C  s               318      7.325840  19 C  py        
   401     -6.911501  23 C  px              471     -6.607399  28 C  s         

 Vector  209  Occ=0.000000D+00  E= 4.758853D-01
              MO Center= -5.9D-02,  1.5D+00,  1.2D-01, r^2= 1.8D+01
   Bfn.  Coefficient  Atom+Function         Bfn.  Coefficient  Atom+Function  
  ----- ------------  ---------------      ----- ------------  ---------------
   267     13.608036  16 N  s               217    -11.284281  14 C  s         
   147    -10.147136   9 C  px               56     -9.645797   5 C  s         
   174      7.947954  11 C  s               360      7.969907  21 N  s         
   595      7.277614  36 C  s               471     -7.109905  28 C  s         
   114     -6.890602   7 N  py              113     -6.702942   7 N  px        

 Vector  210  Occ=0.000000D+00  E= 4.778696D-01
              MO Center= -4.6D-01, -9.1D-01, -5.5D-01, r^2= 2.4D+01
   Bfn.  Coefficient  Atom+Function         Bfn.  Coefficient  Atom+Function  
  ----- ------------  ---------------      ----- ------------  ---------------
   217     14.650575  14 C  s               174    -11.849969  11 C  s         
   147      9.450019   9 C  px              267     -8.644452  16 N  s         
    63      8.361925   5 C  px               13      8.212309   2 C  s         
    56      7.468789   5 C  s               471      6.668521  28 C  s         
   566     -6.256240  33 H  s               173     -6.124057  11 C  s         

 Vector  211  Occ=0.000000D+00  E= 4.823182D-01
              MO Center= -2.3D-01, -5.8D-01, -3.4D-01, r^2= 2.4D+01
   Bfn.  Coefficient  Atom+Function         Bfn.  Coefficient  Atom+Function  
  ----- ------------  ---------------      ----- ------------  ---------------
   174     13.994818  11 C  s               543    -10.980017  32 C  s         
    13    -10.897806   2 C  s                56    -10.421874   5 C  s         
   113    -10.426700   7 N  px              148     -8.627046   9 C  py        
   542     -8.390658  32 C  s                63     -7.845418   5 C  px        
   217      7.487893  14 C  s               427      7.098445  25 C  s         

 Vector  212  Occ=0.000000D+00  E= 4.849704D-01
              MO Center= -1.6D-01, -1.9D-01, -1.9D-02, r^2= 2.2D+01
   Bfn.  Coefficient  Atom+Function         Bfn.  Coefficient  Atom+Function  
  ----- ------------  ---------------      ----- ------------  ---------------
   435     12.223529  25 C  px              148     10.842638   9 C  py        
    56     10.208553   5 C  s                63      9.541653   5 C  px        
   367      9.027758  21 N  px              645     -8.507037  38 N  s         
   360     -6.954675  21 N  s                13      6.856217   2 C  s         
   317     -6.353097  19 C  px              471      5.922755  28 C  s         

 Vector  213  Occ=0.000000D+00  E= 4.904995D-01
              MO Center= -7.7D-01, -2.1D-01, -2.8D-01, r^2= 2.3D+01
   Bfn.  Coefficient  Atom+Function         Bfn.  Coefficient  Atom+Function  
  ----- ------------  ---------------      ----- ------------  ---------------
   595     19.613904  36 C  s                56     15.019596   5 C  s         
   174    -13.706519  11 C  s               401    -11.939082  23 C  px        
    13     10.674193   2 C  s               267     10.007968  16 N  s         
   543     -9.958427  32 C  s               402     -9.660955  23 C  py        
    45     -8.415772   4 H  s               197      8.315777  12 H  s         

 Vector  214  Occ=0.000000D+00  E= 4.929934D-01
              MO Center=  3.2D-01,  4.2D-01,  1.2D-01, r^2= 2.1D+01
   Bfn.  Coefficient  Atom+Function         Bfn.  Coefficient  Atom+Function  
  ----- ------------  ---------------      ----- ------------  ---------------
   318     21.009592  19 C  py              595     13.525941  36 C  s         
   360     13.150274  21 N  s                56    -12.677425   5 C  s         
   317     -9.436941  19 C  px              113     -8.628032   7 N  px        
   310     -8.663887  19 C  s               394      7.385921  23 C  s         
   471      7.415547  28 C  s               217     -6.488544  14 C  s         

 Vector  215  Occ=0.000000D+00  E= 4.984212D-01
              MO Center= -1.2D-01, -2.7D-01, -1.1D-01, r^2= 2.1D+01
   Bfn.  Coefficient  Atom+Function         Bfn.  Coefficient  Atom+Function  
  ----- ------------  ---------------      ----- ------------  ---------------
    56     15.651174   5 C  s               174    -13.231898  11 C  s         
    13     11.748731   2 C  s                63     11.054885   5 C  px        
   360     10.355019  21 N  s               147      9.344107   9 C  px        
   148      7.577765   9 C  py              584     -6.447392  35 H  s         
   140     -6.185140   9 C  s               367      5.836805  21 N  px        

 Vector  216  Occ=0.000000D+00  E= 5.016991D-01
              MO Center= -6.7D-01, -1.4D-01, -1.2D-01, r^2= 2.2D+01
   Bfn.  Coefficient  Atom+Function         Bfn.  Coefficient  Atom+Function  
  ----- ------------  ---------------      ----- ------------  ---------------
   595     15.027054  36 C  s               217     13.573357  14 C  s         
    56     11.524391   5 C  s               174    -10.981711  11 C  s         
    12      9.080274   2 C  s               173     -8.566133  11 C  s         
   401     -8.591890  23 C  px              360     -7.759911  21 N  s         
   504     -7.496643  30 H  s               267     -6.444191  16 N  s         


 center of mass
 --------------
 x =   0.04596183 y =   0.00979139 z =   0.01411402

 moments of inertia (a.u.)
 ------------------
        8144.202117260888          -0.000000000002           0.000000000002
          -0.000000000002        5268.408602533589           0.000000000002
           0.000000000002           0.000000000002       11331.895402130289

  Mulliken analysis of the total density
  --------------------------------------

    Atom       Charge   Shell Charges
 -----------   ------   -------------------------------------------------------
    1 H    1     0.81   0.76  0.06  0.02  0.03 -0.06
    2 C    6     6.35   2.01  0.66  0.37  0.18  2.07  0.93 -0.05  0.06  0.12
    3 H    1     0.84   0.76  0.11  0.02  0.03 -0.08
    4 H    1     0.97   0.77  0.24  0.00  0.03 -0.06
    5 C    6     5.26   2.01  0.68  0.07  0.13  1.89  0.37 -0.09  0.24 -0.03
    6 O    8     8.86   2.01  0.82  1.01  0.19  2.80  1.89  0.15  0.02 -0.01
    7 N    7     7.49   2.01  0.72  0.83 -0.15  2.45  1.42  0.13  0.05  0.03
    8 H    1     0.95   0.74  0.23 -0.02  0.06 -0.06
    9 C    6     6.72   2.01  0.66  0.15 -0.00  1.99  1.42  0.17  0.14  0.18
   10 H    1     0.96   0.78  0.14  0.00  0.03  0.00
   11 C    6     6.15   2.01  0.66  0.63 -0.10  2.06  0.74 -0.02  0.09  0.09
   12 H    1     0.92   0.77  0.18 -0.01  0.03 -0.05
   13 H    1     0.88   0.77  0.15 -0.01  0.03 -0.06
   14 C    6     4.61   2.01  0.68  0.03 -0.01  1.91 -0.15  0.02  0.24 -0.11
   15 O    8     8.84   2.01  0.82  1.02  0.20  2.80  1.84  0.14  0.02 -0.00
   16 N    7     7.17   2.01  0.72  0.76 -0.15  2.47  1.25  0.09  0.04 -0.02
   17 H    1     1.00   0.76  0.21 -0.01  0.05 -0.02
   18 H    1     0.87   0.73  0.16 -0.01  0.06 -0.07
   19 C    6     4.27   2.01  0.68 -0.05 -0.13  1.88  0.16 -0.04  0.24 -0.48
   20 O    8     9.03   2.01  0.82  1.04  0.22  2.80  1.90  0.23  0.01  0.00
   21 N    7     7.55   2.01  0.72  0.90 -0.12  2.45  1.43  0.06  0.05  0.06
   22 H    1     0.89   0.73  0.32 -0.03  0.06 -0.19
   23 C    6     6.52   2.01  0.67  0.16 -0.02  1.99  1.36  0.18  0.14  0.04
   24 H    1     0.98   0.79  0.16 -0.02  0.03  0.02
   25 C    6     6.17   2.01  0.67  0.65 -0.02  2.03  0.58  0.06  0.09  0.10
   26 H    1     0.94   0.78  0.25 -0.04  0.03 -0.08
   27 H    1     0.92   0.77  0.19  0.01  0.03 -0.09
   28 C    6     5.70   2.01  0.66 -0.02 -0.07  1.99  1.07  0.06  0.10 -0.09
   29 H    1     1.22   0.78  0.46  0.00  0.03 -0.05
   30 H    1     1.24   0.78  0.45  0.00  0.03 -0.02
   31 S   16    15.37   2.00  2.03  0.86  0.75  0.11  6.00  2.31  1.36  0.06  0.12 -0.22
   32 C    6     5.66   2.01  0.65  0.29 -0.16  2.00  0.89 -0.06  0.07 -0.03
   33 H    1     1.03   0.76  0.20  0.03  0.03  0.01
   34 H    1     1.19   0.76  0.47 -0.03  0.03 -0.03
   35 H    1     1.27   0.76  0.37  0.07  0.03  0.03
   36 C    6     4.49   2.01  0.68  0.07  0.06  1.89 -0.15 -0.04  0.24 -0.26
   37 O    8     8.75   2.01  0.82  1.03  0.15  2.79  1.82  0.14  0.01 -0.01
   38 N    7     7.24   2.01  0.72  0.82 -0.15  2.47  1.25  0.10  0.04 -0.02
   39 H    1     0.91   0.74  0.19 -0.02  0.06 -0.05
   40 H    1     1.01   0.76  0.23 -0.00  0.05 -0.03

       Multipole analysis of the density wrt the origin
       ------------------------------------------------

     L   x y z        total         open         nuclear
     -   - - -        -----         ----         -------
     0   0 0 0      0.000000      0.000000    162.000000

     1   1 0 0     -0.426890      0.000000     -0.000000
     1   0 1 0      1.832105      0.000000      0.000000
     1   0 0 1     -0.335059      0.000000      0.000000

     2   2 0 0    -96.654733      0.000000   2309.372080
     2   1 1 0     14.022658      0.000000     34.396064
     2   1 0 1      4.380366      0.000000     19.868034
     2   0 2 0   -111.203009      0.000000   3799.493401
     2   0 1 1     -2.224346      0.000000      8.540855
     2   0 0 2    -94.791895      0.000000    577.047147


 Task  times  cpu:     6021.3s     wall:     6039.2s


                                NWChem Input Module
                                -------------------


 Summary of allocated global arrays
-----------------------------------
  No active global arrays


MA_summarize_allocated_blocks: starting scan ...
MA_summarize_allocated_blocks: scan completed: 0 heap blocks, 0 stack blocks
MA usage statistics:

	allocation statistics:
					      heap	     stack
					      ----	     -----
	current number of blocks	         0	         0
	maximum number of blocks	        16	        14
	current total bytes		         0	         0
	maximum total bytes		    156872	  37111464
	maximum total K-bytes		       157	     37112
	maximum total M-bytes		         1	        38


                                     CITATION
                                     --------
                Please cite the following reference when publishing
                           results obtained with NWChem:

          E. Apra, E. J. Bylaska, W. A. de Jong, N. Govind, K. Kowalski,
       T. P. Straatsma, M. Valiev, H. J. J. van Dam, Y. Alexeev, J. Anchell,
       V. Anisimov, F. W. Aquino, R. Atta-Fynn, J. Autschbach, N. P. Bauman,
     J. C. Becca, D. E. Bernholdt, K. Bhaskaran-Nair, S. Bogatko, P. Borowski,
         J. Boschen, J. Brabec, A. Bruner, E. Cauet, Y. Chen, G. N. Chuev,
      C. J. Cramer, J. Daily, M. J. O. Deegan, T. H. Dunning Jr., M. Dupuis,
   K. G. Dyall, G. I. Fann, S. A. Fischer, A. Fonari, H. Fruchtl, L. Gagliardi,
      J. Garza, N. Gawande, S. Ghosh, K. Glaesemann, A. W. Gotz, J. Hammond,
       V. Helms, E. D. Hermes, K. Hirao, S. Hirata, M. Jacquelin, L. Jensen,
   B. G. Johnson, H. Jonsson, R. A. Kendall, M. Klemm, R. Kobayashi, V. Konkov,
      S. Krishnamoorthy, M. Krishnan, Z. Lin, R. D. Lins, R. J. Littlefield,
      A. J. Logsdail, K. Lopata, W. Ma, A. V. Marenich, J. Martin del Campo,
   D. Mejia-Rodriguez, J. E. Moore, J. M. Mullin, T. Nakajima, D. R. Nascimento,
    J. A. Nichols, P. J. Nichols, J. Nieplocha, A. Otero-de-la-Roza, B. Palmer,
    A. Panyala, T. Pirojsirikul, B. Peng, R. Peverati, J. Pittner, L. Pollack,
   R. M. Richard, P. Sadayappan, G. C. Schatz, W. A. Shelton, D. W. Silverstein,
   D. M. A. Smith, T. A. Soares, D. Song, M. Swart, H. L. Taylor, G. S. Thomas,
            V. Tipparaju, D. G. Truhlar, K. Tsemekhman, T. Van Voorhis,
      A. Vazquez-Mayagoitia, P. Verma, O. Villa, A. Vishnu, K. D. Vogiatzis,
        D. Wang, J. H. Weare, M. J. Williamson, T. L. Windus, K. Wolinski,
        A. T. Wong, Q. Wu, C. Yang, Q. Yu, M. Zacharias, Z. Zhang, Y. Zhao,
                                and R. J. Harrison
                        "NWChem: Past, present, and future
                         J. Chem. Phys. 152, 184102 (2020)
                               doi:10.1063/5.0004997

                                      AUTHORS
                                      -------
  E. Apra, E. J. Bylaska, N. Govind, K. Kowalski, M. Valiev, D. Mejia-Rodriguez,
       A. Kunitsa, N. P. Bauman, A. Panyala, W. A. de Jong, T. P. Straatsma,
   H. J. J. van Dam, D. Wang, T. L. Windus, J. Hammond, J. Autschbach, A. Woods,
    K. Bhaskaran-Nair, J. Brabec, K. Lopata, S. A. Fischer, S. Krishnamoorthy,
     M. Jacquelin, W. Ma, M. Klemm, O. Villa, Y. Chen, V. Anisimov, F. Aquino,
     S. Hirata, M. T. Hackler, E. Hermes, L. Jensen, J. E. Moore, J. C. Becca,
      V. Konjkov, T. Risthaus, M. Malagoli, A. Marenich, A. Otero-de-la-Roza,
        J. Mullin, P. Nichols, R. Peverati, J. Pittner, Y. Zhao, P.-D. Fan,
        A. Fonari, M. J. Williamson, R. J. Harrison, J. R. Rehr, M. Dupuis,
     D. Silverstein, D. M. A. Smith, J. Nieplocha, V. Tipparaju, M. Krishnan,
     B. E. Van Kuiken, A. Vazquez-Mayagoitia, M. Swart, Q. Wu, T. Van Voorhis,
     A. A. Auer, M. Nooijen, L. D. Crosby, E. Brown, G. Cisneros, G. I. Fann,
   H. Fruchtl, J. Garza, K. Hirao, R. A. Kendall, J. A. Nichols, K. Tsemekhman,
    K. Wolinski, J. Anchell, D. E. Bernholdt, P. Borowski, T. Clark, D. Clerc,
   H. Dachsel, M. J. O. Deegan, K. Dyall, D. Elwood, E. Glendening, M. Gutowski,
   A. C. Hess, J. Jaffe, B. G. Johnson, J. Ju, R. Kobayashi, R. Kutteh, Z. Lin,
   R. Littlefield, X. Long, B. Meng, T. Nakajima, S. Niu, L. Pollack, M. Rosing,
   K. Glaesemann, G. Sandrone, M. Stave, H. Taylor, G. Thomas, J. H. van Lenthe,
                               A. T. Wong, Z. Zhang.

 Total times  cpu:     6021.4s     wall:     6039.7s
