export TMOUT=5400
export TMPDIR=/tmp
export PTMPDIR=/tmp/ptmp
 argument  1 = inputs/ASN_CYS_1.nw



============================== echo of input deck ==============================
start ASN_CYS_1
geometry
H         -1.63000        1.44900        3.20500
C         -0.81000        2.06300        3.57400
H         -0.31700        1.55200        4.40000
H         -1.19500        3.02300        3.91600
C          0.18700        2.28700        2.46300
O          1.35000        1.92600        2.59600
N         -0.25900        2.91900        1.37800
H         -1.23000        3.21000        1.37800
C          0.50100        3.18800        0.14300
H          0.99100        2.25800       -0.15100
C         -0.51000        3.55500       -0.96100
H          0.01100        3.73100       -1.90200
H         -1.19900        2.72500       -1.11200
C         -1.32300        4.78200       -0.59500
O         -2.35900        4.68700        0.03700
N         -0.84800        5.96200       -0.91100
H          0.08500        6.02600       -1.29500
H         -1.39400        6.76200       -0.64900
C          1.63700        4.23700        0.28100
O          1.89000        5.01900       -0.63500
N          2.29300        4.28200        1.43800
H          2.02800        3.59300        2.13000
C          3.38800        5.19100        1.78700
H          3.97400        5.40000        0.89000
C          2.79200        6.51600        2.29000
H          3.60500        7.16600        2.62300
H          2.26700        7.01300        1.47300
S          1.64200        6.24400        3.67400
H          0.62500        5.77500        2.94400
C          4.37300        4.59000        2.81500
O          5.39200        5.19900        3.11500
N          4.12500        3.40100        3.35700
H          3.29900        2.87600        3.11300
H          4.78800        3.04200        4.02400
end

basis
 * library aug-cc-pvdz
end

echo

scf
 direct
end

task scf energy
================================================================================


                                         
                                         


             Northwest Computational Chemistry Package (NWChem) 7.2.0
             --------------------------------------------------------


                    Environmental Molecular Sciences Laboratory
                       Pacific Northwest National Laboratory
                                Richland, WA 99352

                              Copyright (c) 1994-2022
                       Pacific Northwest National Laboratory
                            Battelle Memorial Institute

             NWChem is an open-source computational chemistry package
                        distributed under the terms of the
                      Educational Community License (ECL) 2.0
             A copy of the license is included with this distribution
                              in the LICENSE.TXT file

                                  ACKNOWLEDGMENT
                                  --------------

            This software and its documentation were developed at the
            EMSL at Pacific Northwest National Laboratory, a multiprogram
            national laboratory, operated for the U.S. Department of Energy
            by Battelle under Contract Number DE-AC05-76RL01830. Support
            for this work was provided by the Department of Energy Office
            of Biological and Environmental Research, Office of Basic
            Energy Sciences, and the Office of Advanced Scientific Computing.


           Job information
           ---------------

    hostname        = nova21-swift-2
    program         = /opt/rit/el9/20230413/app/linux-rhel9-x86_64_v3/gcc-11.2.1/nwchem-7.2.0-oxtctbuhfuzyfaoziquq6bki22grib3g/bin/nwchem
    date            = Thu Jul 10 03:59:43 2025

    compiled        = Wed_May_17_23:46:39_2023
    source          = /tmp/root/spack-stage/spack-stage-nwchem-7.2.0-oxtctbuhfuzyfaoziquq6bki22grib3g/spack-src
    nwchem branch   = 7.2.0
    nwchem revision = d0d141fd
    ga revision     = 5.8.0
    use scalapack   = T
    input           = inputs/ASN_CYS_1.nw
    prefix          = ASN_CYS_1.
    data base       = ./ASN_CYS_1.db
    status          = startup
    nproc           =        8
    time left       =     -1s



           Memory information
           ------------------

    heap     =   26214396 doubles =    200.0 Mbytes
    stack    =   26214401 doubles =    200.0 Mbytes
    global   =   52428800 doubles =    400.0 Mbytes (distinct from heap & stack)
    total    =  104857597 doubles =    800.0 Mbytes
    verify   = yes
    hardfail = no 


           Directory information
           ---------------------

  0 permanent = .
  0 scratch   = .




                                NWChem Input Module
                                -------------------



 Scaling coordinates for geometry "geometry" by  1.889725989
 (inverse scale =  0.529177249)

 C1  symmetry detected

          ------
          auto-z
          ------
  no constraints, skipping    0.0000000000000000     
  no constraints, skipping    0.0000000000000000     


                             Geometry "geometry" -> ""
                             -------------------------

 Output coordinates in angstroms (scale by  1.889725989 to convert to a.u.)

  No.       Tag          Charge          X              Y              Z
 ---- ---------------- ---------- -------------- -------------- --------------
    1 H                    1.0000    -3.82197136     2.00929983     0.96810370
    2 C                    6.0000    -3.35446647     1.03850712     1.12481262
    3 H                    1.0000    -4.11961639     0.26327531     1.12750521
    4 H                    1.0000    -2.82698009     1.03442231     2.07798125
    5 C                    6.0000    -2.37701292     0.76726008     0.00699528
    6 O                    8.0000    -2.51452350    -0.21875935    -0.70675224
    7 N                    7.0000    -1.36425449     1.62349366    -0.12242434
    8 H                    1.0000    -1.31760785     2.38906706     0.54033011
    9 C                    6.0000    -0.33016976     1.60908236    -1.17392189
   10 H                    1.0000    -0.83806904     1.49567060    -2.13340722
   11 C                    6.0000     0.36375567     2.98533795    -1.17017383
   12 H                    1.0000     1.11643456     3.02702521    -1.95734260
   13 H                    1.0000    -0.37205143     3.76282634    -1.37147388
   14 C                    6.0000     1.01268538     3.28532984     0.16749171
   15 O                    8.0000     0.39053911     3.82532206     1.06364316
   16 N                    7.0000     2.24398927     2.88316325     0.36757613
   17 H                    1.0000     2.68716797     2.30132648    -0.33034908
   18 H                    1.0000     2.65139061     3.07956199     1.26323884
   19 C                    6.0000     0.68059936     0.43373840    -1.09113696
   20 O                    8.0000     1.86382606     0.59542233    -1.38849516
   21 N                    7.0000     0.22588873    -0.73621201    -0.64902354
   22 H                    1.0000    -0.76315297    -0.78226189    -0.44049074
   23 C                    6.0000     1.00043095    -1.96914377    -0.48449207
   24 H                    1.0000     1.76939606    -2.00994966    -1.25825789
   25 C                    6.0000     1.69906423    -1.93747255     0.88472613
   26 H                    1.0000     2.21404013    -2.88858016     1.04141733
   27 H                    1.0000     2.44157268    -1.13831028     0.89672016
   28 S                   16.0000     0.50539009    -1.67723358     2.23356183
   29 H                    1.0000     0.31170496    -0.37138831     2.02283878
   30 C                    6.0000     0.15028039    -3.24851244    -0.65381377
   31 O                    8.0000     0.69008685    -4.34751893    -0.64783874
   32 N                    7.0000    -1.16488465    -3.15457777    -0.82847400
   33 H                    1.0000    -1.62771602    -2.25863768    -0.85117829
   34 H                    1.0000    -1.68638445    -4.00917053    -0.93358427

      Atomic Mass 
      ----------- 

      H                  1.007825
      C                 12.000000
      O                 15.994910
      N                 14.003070
      S                 31.972070


 Effective nuclear repulsion energy (a.u.)    1590.8352084410

            Nuclear Dipole moment (a.u.) 
            ----------------------------
        X                 Y               Z
 ---------------- ---------------- ----------------
     0.0000000000     0.0000000000    -0.0000000000



                                Z-matrix (autoz)
                                -------- 

 Units are Angstrom for bonds and degrees for angles

      Type          Name      I     J     K     L     M      Value
      ----------- --------  ----- ----- ----- ----- ----- ----------
    1 Stretch                  1     2                       1.08883
    2 Stretch                  2     3                       1.08924
    3 Stretch                  2     4                       1.08940
    4 Stretch                  2     5                       1.50947
    5 Stretch                  5     6                       1.22498
    6 Stretch                  5     7                       1.33250
    7 Stretch                  7     8                       1.01367
    8 Stretch                  7     9                       1.47485
    9 Stretch                  9    10                       1.09153
   10 Stretch                  9    11                       1.54131
   11 Stretch                  9    19                       1.55240
   12 Stretch                 11    12                       1.08991
   13 Stretch                 11    13                       1.08923
   14 Stretch                 11    14                       1.51672
   15 Stretch                 14    15                       1.21727
   16 Stretch                 14    16                       1.31068
   17 Stretch                 16    17                       1.01096
   18 Stretch                 16    18                       1.00337
   19 Stretch                 19    20                       1.23069
   20 Stretch                 19    21                       1.33079
   21 Stretch                 21    22                       1.01183
   22 Stretch                 21    23                       1.46530
   23 Stretch                 23    24                       1.09164
   24 Stretch                 23    25                       1.53748
   25 Stretch                 23    30                       1.54538
   26 Stretch                 25    26                       1.09287
   27 Stretch                 25    27                       1.09093
   28 Stretch                 25    28                       1.81987
   29 Stretch                 28    29                       1.33684
   30 Stretch                 30    31                       1.22444
   31 Stretch                 30    32                       1.33003
   32 Stretch                 32    33                       1.00868
   33 Stretch                 32    34                       1.00665
   34 Bend                     1     2     3               109.46949
   35 Bend                     1     2     4               109.70435
   36 Bend                     1     2     5               109.37004
   37 Bend                     2     5     6               120.22734
   38 Bend                     2     5     7               116.65509
   39 Bend                     3     2     4               109.59079
   40 Bend                     3     2     5               109.19680
   41 Bend                     4     2     5               109.49444
   42 Bend                     5     7     8               117.17944
   43 Bend                     5     7     9               126.57442
   44 Bend                     6     5     7               123.08984
   45 Bend                     7     9    10               107.54594
   46 Bend                     7     9    11               107.77081
   47 Bend                     7     9    19               115.20733
   48 Bend                     8     7     9               116.18402
   49 Bend                     9    11    12               110.07885
   50 Bend                     9    11    13               109.43722
   51 Bend                     9    11    14               111.80072
   52 Bend                     9    19    20               120.90662
   53 Bend                     9    19    21               117.44220
   54 Bend                    10     9    11               107.72233
   55 Bend                    10     9    19               105.73417
   56 Bend                    11     9    19               112.50544
   57 Bend                    11    14    15               121.22181
   58 Bend                    11    14    16               118.41693
   59 Bend                    12    11    13               107.80248
   60 Bend                    12    11    14               109.50788
   61 Bend                    13    11    14               108.10957
   62 Bend                    14    16    17               118.88360
   63 Bend                    14    16    18               117.23564
   64 Bend                    15    14    16               120.25689
   65 Bend                    17    16    18               123.42936
   66 Bend                    19    21    22               116.26131
   67 Bend                    19    21    23               126.61362
   68 Bend                    20    19    21               121.61954
   69 Bend                    21    23    24               108.91757
   70 Bend                    21    23    25               108.83569
   71 Bend                    21    23    30               113.17180
   72 Bend                    22    21    23               117.08080
   73 Bend                    23    25    26               108.89764
   74 Bend                    23    25    27               109.52124
   75 Bend                    23    25    28               111.40481
   76 Bend                    23    30    31               119.99982
   77 Bend                    23    30    32               119.99289
   78 Bend                    24    23    25               108.17501
   79 Bend                    24    23    30               106.19486
   80 Bend                    25    23    30               111.38327
   81 Bend                    25    28    29                96.76999
   82 Bend                    26    25    27               108.37503
   83 Bend                    26    25    28               109.10247
   84 Bend                    27    25    28               109.48281
   85 Bend                    30    32    33               121.29245
   86 Bend                    30    32    34               117.77619
   87 Bend                    31    30    32               119.99768
   88 Bend                    33    32    34               120.93081
   89 Torsion                  1     2     5     6        -120.90276
   90 Torsion                  1     2     5     7          60.95410
   91 Torsion                  2     5     7     8           0.46595
   92 Torsion                  2     5     7     9        -176.54386
   93 Torsion                  3     2     5     6          -1.13324
   94 Torsion                  3     2     5     7        -179.27638
   95 Torsion                  4     2     5     6         118.85950
   96 Torsion                  4     2     5     7         -59.28364
   97 Torsion                  5     7     9    10          47.76669
   98 Torsion                  5     7     9    11         163.65326
   99 Torsion                  5     7     9    19         -69.82535
  100 Torsion                  6     5     7     8        -177.61905
  101 Torsion                  6     5     7     9           5.37113
  102 Torsion                  7     9    11    12        -178.20171
  103 Torsion                  7     9    11    13         -59.89539
  104 Torsion                  7     9    11    14          59.85093
  105 Torsion                  7     9    19    20        -143.78573
  106 Torsion                  7     9    19    21          34.20072
  107 Torsion                  8     7     9    10        -129.26914
  108 Torsion                  8     7     9    11         -13.38257
  109 Torsion                  8     7     9    19         113.13882
  110 Torsion                  9    11    14    15         -88.21615
  111 Torsion                  9    11    14    16          88.07791
  112 Torsion                  9    19    21    22           2.83934
  113 Torsion                  9    19    21    23        -179.66566
  114 Torsion                 10     9    11    12         -62.43097
  115 Torsion                 10     9    11    13          55.87534
  116 Torsion                 10     9    11    14         175.62167
  117 Torsion                 10     9    19    20          97.60801
  118 Torsion                 10     9    19    21         -84.40553
  119 Torsion                 11     9    19    20         -19.71799
  120 Torsion                 11     9    19    21         158.26847
  121 Torsion                 11    14    16    17          -6.59758
  122 Torsion                 11    14    16    18        -179.15566
  123 Torsion                 12    11     9    19          53.70855
  124 Torsion                 12    11    14    15         149.50906
  125 Torsion                 12    11    14    16         -34.19688
  126 Torsion                 13    11     9    19         172.01487
  127 Torsion                 13    11    14    15          32.30760
  128 Torsion                 13    11    14    16        -151.39834
  129 Torsion                 14    11     9    19         -68.23881
  130 Torsion                 15    14    16    17         169.73346
  131 Torsion                 15    14    16    18          -2.82462
  132 Torsion                 19    21    23    24         -33.02143
  133 Torsion                 19    21    23    25          84.70800
  134 Torsion                 19    21    23    30        -150.88651
  135 Torsion                 20    19    21    22        -179.18948
  136 Torsion                 20    19    21    23          -1.69448
  137 Torsion                 21    23    25    26         175.67892
  138 Torsion                 21    23    25    27         -65.96925
  139 Torsion                 21    23    25    28          55.29973
  140 Torsion                 21    23    30    31         174.18313
  141 Torsion                 21    23    30    32          -4.68972
  142 Torsion                 22    21    23    24         144.45550
  143 Torsion                 22    21    23    25         -97.81507
  144 Torsion                 22    21    23    30          26.59041
  145 Torsion                 23    25    28    29         -75.65185
  146 Torsion                 23    30    32    33          -0.16023
  147 Torsion                 23    30    32    34        -179.89212
  148 Torsion                 24    23    25    26         -66.12241
  149 Torsion                 24    23    25    27          52.22943
  150 Torsion                 24    23    25    28         173.49840
  151 Torsion                 24    23    30    31          54.74142
  152 Torsion                 24    23    30    32        -124.13143
  153 Torsion                 25    23    30    31         -62.80983
  154 Torsion                 25    23    30    32         118.31731
  155 Torsion                 26    25    23    30          50.22424
  156 Torsion                 26    25    28    29         164.08957
  157 Torsion                 27    25    23    30         168.57607
  158 Torsion                 27    25    28    29          45.63953
  159 Torsion                 28    25    23    30         -70.15495
  160 Torsion                 31    30    32    33        -179.03311
  161 Torsion                 31    30    32    34           1.23500


            XYZ format geometry
            -------------------
    34
 geometry
 H                    -3.82197136     2.00929983     0.96810370
 C                    -3.35446647     1.03850712     1.12481262
 H                    -4.11961639     0.26327531     1.12750521
 H                    -2.82698009     1.03442231     2.07798125
 C                    -2.37701292     0.76726008     0.00699528
 O                    -2.51452350    -0.21875935    -0.70675224
 N                    -1.36425449     1.62349366    -0.12242434
 H                    -1.31760785     2.38906706     0.54033011
 C                    -0.33016976     1.60908236    -1.17392189
 H                    -0.83806904     1.49567060    -2.13340722
 C                     0.36375567     2.98533795    -1.17017383
 H                     1.11643456     3.02702521    -1.95734260
 H                    -0.37205143     3.76282634    -1.37147388
 C                     1.01268538     3.28532984     0.16749171
 O                     0.39053911     3.82532206     1.06364316
 N                     2.24398927     2.88316325     0.36757613
 H                     2.68716797     2.30132648    -0.33034908
 H                     2.65139061     3.07956199     1.26323884
 C                     0.68059936     0.43373840    -1.09113696
 O                     1.86382606     0.59542233    -1.38849516
 N                     0.22588873    -0.73621201    -0.64902354
 H                    -0.76315297    -0.78226189    -0.44049074
 C                     1.00043095    -1.96914377    -0.48449207
 H                     1.76939606    -2.00994966    -1.25825789
 C                     1.69906423    -1.93747255     0.88472613
 H                     2.21404013    -2.88858016     1.04141733
 H                     2.44157268    -1.13831028     0.89672016
 S                     0.50539009    -1.67723358     2.23356183
 H                     0.31170496    -0.37138831     2.02283878
 C                     0.15028039    -3.24851244    -0.65381377
 O                     0.69008685    -4.34751893    -0.64783874
 N                    -1.16488465    -3.15457777    -0.82847400
 H                    -1.62771602    -2.25863768    -0.85117829
 H                    -1.68638445    -4.00917053    -0.93358427

 ==============================================================================
                                internuclear distances
 ------------------------------------------------------------------------------
       center one      |      center two      | atomic units |  angstroms
 ------------------------------------------------------------------------------
    2 C                |   1 H                |     2.05760  |     1.08883
    3 H                |   2 C                |     2.05837  |     1.08924
    4 H                |   2 C                |     2.05866  |     1.08940
    5 C                |   2 C                |     2.85249  |     1.50947
    6 O                |   5 C                |     2.31488  |     1.22498
    7 N                |   5 C                |     2.51807  |     1.33250
    8 H                |   7 N                |     1.91555  |     1.01367
    9 C                |   7 N                |     2.78706  |     1.47485
   10 H                |   9 C                |     2.06269  |     1.09153
   11 C                |   9 C                |     2.91265  |     1.54131
   12 H                |  11 C                |     2.05963  |     1.08991
   13 H                |  11 C                |     2.05835  |     1.08923
   14 C                |  11 C                |     2.86619  |     1.51672
   15 O                |  14 C                |     2.30031  |     1.21727
   16 N                |  14 C                |     2.47683  |     1.31068
   17 H                |  16 N                |     1.91044  |     1.01096
   18 H                |  16 N                |     1.89610  |     1.00337
   19 C                |   9 C                |     2.93361  |     1.55240
   20 O                |  19 C                |     2.32566  |     1.23069
   21 N                |  19 C                |     2.51483  |     1.33079
   22 H                |  21 N                |     1.91209  |     1.01183
   23 C                |  21 N                |     2.76902  |     1.46530
   24 H                |  23 C                |     2.06291  |     1.09164
   25 C                |  23 C                |     2.90542  |     1.53748
   26 H                |  25 C                |     2.06522  |     1.09287
   27 H                |  25 C                |     2.06155  |     1.09093
   28 S                |  25 C                |     3.43906  |     1.81987
   29 H                |  28 S                |     2.52627  |     1.33684
   30 C                |  23 C                |     2.92035  |     1.54538
   31 O                |  30 C                |     2.31385  |     1.22444
   32 N                |  30 C                |     2.51340  |     1.33003
   33 H                |  32 N                |     1.90613  |     1.00868
   34 H                |  32 N                |     1.90229  |     1.00665
 ------------------------------------------------------------------------------
                         number of included internuclear distances:         33
 ==============================================================================



 ==============================================================================
                                 internuclear angles
 ------------------------------------------------------------------------------
        center 1       |       center 2       |       center 3       |  degrees
 ------------------------------------------------------------------------------
    1 H                |   2 C                |   3 H                |   109.47
    1 H                |   2 C                |   4 H                |   109.70
    1 H                |   2 C                |   5 C                |   109.37
    3 H                |   2 C                |   4 H                |   109.59
    3 H                |   2 C                |   5 C                |   109.20
    4 H                |   2 C                |   5 C                |   109.49
    2 C                |   5 C                |   6 O                |   120.23
    2 C                |   5 C                |   7 N                |   116.66
    6 O                |   5 C                |   7 N                |   123.09
    5 C                |   7 N                |   8 H                |   117.18
    5 C                |   7 N                |   9 C                |   126.57
    8 H                |   7 N                |   9 C                |   116.18
    7 N                |   9 C                |  10 H                |   107.55
    7 N                |   9 C                |  11 C                |   107.77
    7 N                |   9 C                |  19 C                |   115.21
   10 H                |   9 C                |  11 C                |   107.72
   10 H                |   9 C                |  19 C                |   105.73
   11 C                |   9 C                |  19 C                |   112.51
    9 C                |  11 C                |  12 H                |   110.08
    9 C                |  11 C                |  13 H                |   109.44
    9 C                |  11 C                |  14 C                |   111.80
   12 H                |  11 C                |  13 H                |   107.80
   12 H                |  11 C                |  14 C                |   109.51
   13 H                |  11 C                |  14 C                |   108.11
   11 C                |  14 C                |  15 O                |   121.22
   11 C                |  14 C                |  16 N                |   118.42
   15 O                |  14 C                |  16 N                |   120.26
   14 C                |  16 N                |  17 H                |   118.88
   14 C                |  16 N                |  18 H                |   117.24
   17 H                |  16 N                |  18 H                |   123.43
    9 C                |  19 C                |  20 O                |   120.91
    9 C                |  19 C                |  21 N                |   117.44
   20 O                |  19 C                |  21 N                |   121.62
   19 C                |  21 N                |  22 H                |   116.26
   19 C                |  21 N                |  23 C                |   126.61
   22 H                |  21 N                |  23 C                |   117.08
   21 N                |  23 C                |  24 H                |   108.92
   21 N                |  23 C                |  25 C                |   108.84
   21 N                |  23 C                |  30 C                |   113.17
   24 H                |  23 C                |  25 C                |   108.18
   24 H                |  23 C                |  30 C                |   106.19
   25 C                |  23 C                |  30 C                |   111.38
   23 C                |  25 C                |  26 H                |   108.90
   23 C                |  25 C                |  27 H                |   109.52
   23 C                |  25 C                |  28 S                |   111.40
   26 H                |  25 C                |  27 H                |   108.38
   26 H                |  25 C                |  28 S                |   109.10
   27 H                |  25 C                |  28 S                |   109.48
   25 C                |  28 S                |  29 H                |    96.77
   23 C                |  30 C                |  31 O                |   120.00
   23 C                |  30 C                |  32 N                |   119.99
   31 O                |  30 C                |  32 N                |   120.00
   30 C                |  32 N                |  33 H                |   121.29
   30 C                |  32 N                |  34 H                |   117.78
   33 H                |  32 N                |  34 H                |   120.93
 ------------------------------------------------------------------------------
                            number of included internuclear angles:         55
 ==============================================================================



  library name resolved from: environment
  library file name is: </opt/rit/el9/20230413/app/linux-rhel9-x86_64_v3/gcc-11.2.1/nwchem-7.2.0-oxtctbuhfuzyfaoziquq6bki22grib3g/share/nwchem/libraries/>
  


 Summary of "ao basis" -> "" (cartesian)
 ------------------------------------------------------------------------------
       Tag                 Description            Shells   Functions and Types
 ---------------- ------------------------------  ------  ---------------------
 *                        aug-cc-pvdz                 on all atoms 


                      Basis "ao basis" -> "ao basis" (cartesian)
                      -----
  H (Hydrogen)
  ------------
            Exponent  Coefficients 
       -------------- ---------------------------------------------------------
  1 S  1.30100000E+01  0.019685
  1 S  1.96200000E+00  0.137977
  1 S  4.44600000E-01  0.478148

  2 S  1.22000000E-01  1.000000

  3 S  2.97400000E-02  1.000000

  4 P  7.27000000E-01  1.000000

  5 P  1.41000000E-01  1.000000

  C (Carbon)
  ----------
            Exponent  Coefficients 
       -------------- ---------------------------------------------------------
  1 S  6.66500000E+03  0.000692
  1 S  1.00000000E+03  0.005329
  1 S  2.28000000E+02  0.027077
  1 S  6.47100000E+01  0.101718
  1 S  2.10600000E+01  0.274740
  1 S  7.49500000E+00  0.448564
  1 S  2.79700000E+00  0.285074
  1 S  5.21500000E-01  0.015204

  2 S  6.66500000E+03 -0.000146
  2 S  1.00000000E+03 -0.001154
  2 S  2.28000000E+02 -0.005725
  2 S  6.47100000E+01 -0.023312
  2 S  2.10600000E+01 -0.063955
  2 S  7.49500000E+00 -0.149981
  2 S  2.79700000E+00 -0.127262
  2 S  5.21500000E-01  0.544529

  3 S  1.59600000E-01  1.000000

  4 S  4.69000000E-02  1.000000

  5 P  9.43900000E+00  0.038109
  5 P  2.00200000E+00  0.209480
  5 P  5.45600000E-01  0.508557

  6 P  1.51700000E-01  1.000000

  7 P  4.04100000E-02  1.000000

  8 D  5.50000000E-01  1.000000

  9 D  1.51000000E-01  1.000000

  O (Oxygen)
  ----------
            Exponent  Coefficients 
       -------------- ---------------------------------------------------------
  1 S  1.17200000E+04  0.000710
  1 S  1.75900000E+03  0.005470
  1 S  4.00800000E+02  0.027837
  1 S  1.13700000E+02  0.104800
  1 S  3.70300000E+01  0.283062
  1 S  1.32700000E+01  0.448719
  1 S  5.02500000E+00  0.270952
  1 S  1.01300000E+00  0.015458

  2 S  1.17200000E+04 -0.000160
  2 S  1.75900000E+03 -0.001263
  2 S  4.00800000E+02 -0.006267
  2 S  1.13700000E+02 -0.025716
  2 S  3.70300000E+01 -0.070924
  2 S  1.32700000E+01 -0.165411
  2 S  5.02500000E+00 -0.116955
  2 S  1.01300000E+00  0.557368

  3 S  3.02300000E-01  1.000000

  4 S  7.89600000E-02  1.000000

  5 P  1.77000000E+01  0.043018
  5 P  3.85400000E+00  0.228913
  5 P  1.04600000E+00  0.508728

  6 P  2.75300000E-01  1.000000

  7 P  6.85600000E-02  1.000000

  8 D  1.18500000E+00  1.000000

  9 D  3.32000000E-01  1.000000

  N (Nitrogen)
  ------------
            Exponent  Coefficients 
       -------------- ---------------------------------------------------------
  1 S  9.04600000E+03  0.000700
  1 S  1.35700000E+03  0.005389
  1 S  3.09300000E+02  0.027406
  1 S  8.77300000E+01  0.103207
  1 S  2.85600000E+01  0.278723
  1 S  1.02100000E+01  0.448540
  1 S  3.83800000E+00  0.278238
  1 S  7.46600000E-01  0.015440

  2 S  9.04600000E+03 -0.000153
  2 S  1.35700000E+03 -0.001208
  2 S  3.09300000E+02 -0.005992
  2 S  8.77300000E+01 -0.024544
  2 S  2.85600000E+01 -0.067459
  2 S  1.02100000E+01 -0.158078
  2 S  3.83800000E+00 -0.121831
  2 S  7.46600000E-01  0.549003

  3 S  2.24800000E-01  1.000000

  4 S  6.12400000E-02  1.000000

  5 P  1.35500000E+01  0.039919
  5 P  2.91700000E+00  0.217169
  5 P  7.97300000E-01  0.510319

  6 P  2.18500000E-01  1.000000

  7 P  5.61100000E-02  1.000000

  8 D  8.17000000E-01  1.000000

  9 D  2.30000000E-01  1.000000

  S (Sulphur)
  -----------
            Exponent  Coefficients 
       -------------- ---------------------------------------------------------
  1 S  1.10800000E+05  0.000248
  1 S  1.66100000E+04  0.001920
  1 S  3.78100000E+03  0.009962
  1 S  1.07100000E+03  0.040298
  1 S  3.49800000E+02  0.128604
  1 S  1.26300000E+02  0.303480
  1 S  4.92600000E+01  0.421432
  1 S  2.01600000E+01  0.230781
  1 S  5.72000000E+00  0.017897
  1 S  2.18200000E+00 -0.002975
  1 S  4.32700000E-01  0.000850

  2 S  1.10800000E+05 -0.000069
  2 S  1.66100000E+04 -0.000528
  2 S  3.78100000E+03 -0.002797
  2 S  1.07100000E+03 -0.011265
  2 S  3.49800000E+02 -0.038883
  2 S  1.26300000E+02 -0.099503
  2 S  4.92600000E+01 -0.199740
  2 S  2.01600000E+01 -0.123360
  2 S  5.72000000E+00  0.513194
  2 S  2.18200000E+00  0.607120
  2 S  4.32700000E-01  0.039675

  3 S  1.10800000E+05  0.000020
  3 S  1.66100000E+04  0.000153
  3 S  3.78100000E+03  0.000810
  3 S  1.07100000E+03  0.003290
  3 S  3.49800000E+02  0.011297
  3 S  1.26300000E+02  0.029639
  3 S  4.92600000E+01  0.059985
  3 S  2.01600000E+01  0.041325
  3 S  5.72000000E+00 -0.207474
  3 S  2.18200000E+00 -0.392889
  3 S  4.32700000E-01  0.632840

  4 S  1.57000000E-01  1.000000

  5 S  5.07000000E-02  1.000000

  6 P  3.99700000E+02  0.004475
  6 P  9.41900000E+01  0.034171
  6 P  2.97500000E+01  0.144250
  6 P  1.07700000E+01  0.353928
  6 P  4.11900000E+00  0.459085
  6 P  1.62500000E+00  0.206383
  6 P  4.72600000E-01  0.010214

  7 P  3.99700000E+02 -0.001163
  7 P  9.41900000E+01 -0.008657
  7 P  2.97500000E+01 -0.039089
  7 P  1.07700000E+01 -0.093463
  7 P  4.11900000E+00 -0.147994
  7 P  1.62500000E+00  0.030190
  7 P  4.72600000E-01  0.561573

  8 P  1.40700000E-01  1.000000

  9 P  3.99000000E-02  1.000000

 10 D  4.79000000E-01  1.000000

 11 D  1.52000000E-01  1.000000



 Summary of "ao basis" -> "ao basis" (cartesian)
 ------------------------------------------------------------------------------
       Tag                 Description            Shells   Functions and Types
 ---------------- ------------------------------  ------  ---------------------
 H                        aug-cc-pvdz                5        9   3s2p
 C                        aug-cc-pvdz                9       25   4s3p2d
 O                        aug-cc-pvdz                9       25   4s3p2d
 N                        aug-cc-pvdz                9       25   4s3p2d
 S                        aug-cc-pvdz               11       29   5s4p2d


                                 NWChem SCF Module
                                 -----------------



  ao basis        = "ao basis"
  functions       =   598
  atoms           =    34
  closed shells   =    73
  open shells     =     0
  charge          =   0.00
  wavefunction    = RHF 
  input vectors   = atomic
  output vectors  = ./ASN_CYS_1.movecs
  use symmetry    = F
  symmetry adapt  = F


 Summary of "ao basis" -> "ao basis" (cartesian)
 ------------------------------------------------------------------------------
       Tag                 Description            Shells   Functions and Types
 ---------------- ------------------------------  ------  ---------------------
 H                        aug-cc-pvdz                5        9   3s2p
 C                        aug-cc-pvdz                9       25   4s3p2d
 O                        aug-cc-pvdz                9       25   4s3p2d
 N                        aug-cc-pvdz                9       25   4s3p2d
 S                        aug-cc-pvdz               11       29   5s4p2d



 Forming initial guess at       0.7s


 !! The overlap matrix has   3 vectors deemed linearly dependent with
    eigenvalues:
 3.22D-06 5.28D-06 7.37D-06


      Superposition of Atomic Density Guess
      -------------------------------------

 Sum of atomic energies:       -1260.74949013

      Non-variational initial energy
      ------------------------------

 Total energy =   -1271.942468
 1-e energy   =   -4888.677542
 2-e energy   =    2025.899866
 HOMO         =      -0.289507
 LUMO         =       0.006743


 Starting SCF solution at     224.5s



 ----------------------------------------------
         Quadratically convergent ROHF

 Convergence threshold     :          1.000E-04
 Maximum no. of iterations :           30
 Final Fock-matrix accuracy:          1.000E-10
 ----------------------------------------------


              iter       energy          gnorm     gmax       time
             ----- ------------------- --------- --------- --------
                 1    -1264.6814860396  2.67D+00  1.38D-01    466.1
                 2    -1265.0560425600  8.64D-01  4.32D-02    951.2
                 3    -1265.1230863200  7.08D-02  3.80D-03   1642.0
                 4    -1265.1238454260  4.55D-03  3.49D-04   2552.3
                 5    -1265.1238493785  1.03D-05  6.40D-07   4129.7


       Final RHF  results 
       ------------------ 

         Total SCF energy =  -1265.123849378477
      One-electron energy =  -4899.520522736443
      Two-electron energy =   2043.561464916947
 Nuclear repulsion energy =   1590.835208441018

        Time for solution =   3906.2s


             Final eigenvalues
             -----------------

              1      
    1  -91.9646
    2  -20.5636
    3  -20.5529
    4  -20.5395
    5  -20.5257
    6  -15.6304
    7  -15.6104
    8  -15.6013
    9  -15.5949
   10  -11.3917
   11  -11.3865
   12  -11.3698
   13  -11.3650
   14  -11.3365
   15  -11.3095
   16  -11.2820
   17  -11.2781
   18  -11.2651
   19   -8.9658
   20   -6.6481
   21   -6.6468
   22   -6.6448
   23   -1.4308
   24   -1.4138
   25   -1.4091
   26   -1.3886
   27   -1.2812
   28   -1.2658
   29   -1.2383
   30   -1.2174
   31   -1.1036
   32   -1.0816
   33   -1.0249
   34   -0.9896
   35   -0.9411
   36   -0.8728
   37   -0.8453
   38   -0.8222
   39   -0.8093
   40   -0.7969
   41   -0.7677
   42   -0.7514
   43   -0.7323
   44   -0.7103
   45   -0.7074
   46   -0.6916
   47   -0.6715
   48   -0.6617
   49   -0.6430
   50   -0.6370
   51   -0.6293
   52   -0.6223
   53   -0.6099
   54   -0.6033
   55   -0.5970
   56   -0.5854
   57   -0.5718
   58   -0.5649
   59   -0.5613
   60   -0.5531
   61   -0.5493
   62   -0.5371
   63   -0.5259
   64   -0.4746
   65   -0.4616
   66   -0.4587
   67   -0.4447
   68   -0.4365
   69   -0.4254
   70   -0.4214
   71   -0.4143
   72   -0.4042
   73   -0.3680
   74    0.0248
   75    0.0341
   76    0.0363
   77    0.0423
   78    0.0517
   79    0.0545
   80    0.0563
   81    0.0585
   82    0.0628
   83    0.0743

                       ROHF Final Molecular Orbital Analysis
                       -------------------------------------

 Vector   23  Occ=2.000000D+00  E=-1.430803D+00
              MO Center= -2.0D+00,  2.9D-01, -4.8D-01, r^2= 2.0D+00
   Bfn.  Coefficient  Atom+Function         Bfn.  Coefficient  Atom+Function  
  ----- ------------  ---------------      ----- ------------  ---------------
    80      0.344941   6 O  s                79      0.336459   6 O  s         
    54      0.231668   5 C  s                12      0.178064   2 C  s         

 Vector   24  Occ=2.000000D+00  E=-1.413766D+00
              MO Center=  8.5D-01,  1.4D+00, -5.4D-01, r^2= 5.0D+00
   Bfn.  Coefficient  Atom+Function         Bfn.  Coefficient  Atom+Function  
  ----- ------------  ---------------      ----- ------------  ---------------
   334      0.296344  20 O  s               333      0.272534  20 O  s         
   241      0.202209  15 O  s               240      0.194264  15 O  s         
   308      0.186971  19 C  s         

 Vector   25  Occ=2.000000D+00  E=-1.409073D+00
              MO Center=  9.2D-01,  2.5D+00,  8.9D-02, r^2= 4.3D+00
   Bfn.  Coefficient  Atom+Function         Bfn.  Coefficient  Atom+Function  
  ----- ------------  ---------------      ----- ------------  ---------------
   241      0.312187  15 O  s               240      0.290172  15 O  s         
   334     -0.221574  20 O  s               215      0.202805  14 C  s         
   333     -0.202605  20 O  s         

 Vector   26  Occ=2.000000D+00  E=-1.388576D+00
              MO Center=  3.7D-01, -3.8D+00, -6.7D-01, r^2= 1.2D+00
   Bfn.  Coefficient  Atom+Function         Bfn.  Coefficient  Atom+Function  
  ----- ------------  ---------------      ----- ------------  ---------------
   533      0.371564  31 O  s               532      0.348382  31 O  s         
   507      0.247099  30 C  s         

 Vector   27  Occ=2.000000D+00  E=-1.281221D+00
              MO Center= -1.2D+00,  1.1D+00, -3.6D-01, r^2= 2.6D+00
   Bfn.  Coefficient  Atom+Function         Bfn.  Coefficient  Atom+Function  
  ----- ------------  ---------------      ----- ------------  ---------------
   105      0.368403   7 N  s               104      0.319617   7 N  s         
    80     -0.206600   6 O  s                79     -0.169278   6 O  s         
   139     -0.150477   9 C  s         

 Vector   28  Occ=2.000000D+00  E=-1.265805D+00
              MO Center=  1.9D-01, -6.0D-01, -6.3D-01, r^2= 3.4D+00
   Bfn.  Coefficient  Atom+Function         Bfn.  Coefficient  Atom+Function  
  ----- ------------  ---------------      ----- ------------  ---------------
   359      0.371777  21 N  s               358      0.311977  21 N  s         
   105     -0.186289   7 N  s               334     -0.178288  20 O  s         

 Vector   29  Occ=2.000000D+00  E=-1.238330D+00
              MO Center=  1.8D+00,  3.0D+00,  3.8D-01, r^2= 1.5D+00
   Bfn.  Coefficient  Atom+Function         Bfn.  Coefficient  Atom+Function  
  ----- ------------  ---------------      ----- ------------  ---------------
   265      0.365225  16 N  s               266      0.340020  16 N  s         
   241     -0.218142  15 O  s               218      0.192369  14 C  px        
   240     -0.187374  15 O  s               289      0.160883  17 H  s         
   298      0.153844  18 H  s               173     -0.150860  11 C  s         

 Vector   30  Occ=2.000000D+00  E=-1.217422D+00
              MO Center= -7.0D-01, -3.0D+00, -7.8D-01, r^2= 2.1D+00
   Bfn.  Coefficient  Atom+Function         Bfn.  Coefficient  Atom+Function  
  ----- ------------  ---------------      ----- ------------  ---------------
   558      0.385743  32 N  s               557      0.362895  32 N  s         
   393     -0.253397  23 C  s               533     -0.195109  31 O  s         
   510     -0.184045  30 C  px              532     -0.166572  31 O  s         
   581      0.162926  33 H  s               590      0.156237  34 H  s         

 Vector   31  Occ=2.000000D+00  E=-1.103597D+00
              MO Center= -1.5D-01,  1.0D+00, -4.4D-01, r^2= 6.5D+00
   Bfn.  Coefficient  Atom+Function         Bfn.  Coefficient  Atom+Function  
  ----- ------------  ---------------      ----- ------------  ---------------
   138      0.211182   9 C  s               172      0.194768  11 C  s         
   174     -0.173810  11 C  s         

 Vector   32  Occ=2.000000D+00  E=-1.081577D+00
              MO Center=  7.5D-01, -6.8D-01,  2.8D-01, r^2= 6.7D+00
   Bfn.  Coefficient  Atom+Function         Bfn.  Coefficient  Atom+Function  
  ----- ------------  ---------------      ----- ------------  ---------------
   426      0.231469  25 C  s               393      0.207089  23 C  s         
   470      0.186613  28 S  s               392      0.161010  23 C  s         

 Vector   33  Occ=2.000000D+00  E=-1.024860D+00
              MO Center= -2.3D+00,  1.4D+00,  5.2D-01, r^2= 4.9D+00
   Bfn.  Coefficient  Atom+Function         Bfn.  Coefficient  Atom+Function  
  ----- ------------  ---------------      ----- ------------  ---------------
   173      0.344599  11 C  s                11      0.319200   2 C  s         
   174      0.168218  11 C  s               172      0.159575  11 C  s         
    55      0.152221   5 C  s         

 Vector   34  Occ=2.000000D+00  E=-9.895881D-01
              MO Center=  5.1D-01, -1.1D+00,  4.9D-01, r^2= 5.8D+00
   Bfn.  Coefficient  Atom+Function         Bfn.  Coefficient  Atom+Function  
  ----- ------------  ---------------      ----- ------------  ---------------
   470      0.286747  28 S  s               139      0.220586   9 C  s         
   392     -0.206996  23 C  s               434      0.200297  25 C  pz        
   471      0.164132  28 S  s               145     -0.161120   9 C  py        

 Vector   35  Occ=2.000000D+00  E=-9.410716D-01
              MO Center=  9.1D-03,  1.2D+00, -4.1D-01, r^2= 7.3D+00
   Bfn.  Coefficient  Atom+Function         Bfn.  Coefficient  Atom+Function  
  ----- ------------  ---------------      ----- ------------  ---------------
   173      0.297841  11 C  s               138     -0.215915   9 C  s         
   172      0.162755  11 C  s         

 Vector   36  Occ=2.000000D+00  E=-8.727819D-01
              MO Center=  7.2D-01, -1.5D+00,  5.4D-01, r^2= 5.4D+00
   Bfn.  Coefficient  Atom+Function         Bfn.  Coefficient  Atom+Function  
  ----- ------------  ---------------      ----- ------------  ---------------
   471      0.290728  28 S  s               470      0.232094  28 S  s         
   426     -0.218187  25 C  s               398     -0.193214  23 C  px        

 Vector   37  Occ=2.000000D+00  E=-8.452528D-01
              MO Center= -9.1D-01,  5.3D-01, -2.6D-01, r^2= 6.9D+00
   Bfn.  Coefficient  Atom+Function         Bfn.  Coefficient  Atom+Function  
  ----- ------------  ---------------      ----- ------------  ---------------
   139      0.308008   9 C  s               108     -0.228840   7 N  py        
   128     -0.194608   8 H  s                54      0.181568   5 C  s         
   393      0.179368  23 C  s               107     -0.177351   7 N  px        
   105     -0.175651   7 N  s                60      0.169444   5 C  px        
    80     -0.155209   6 O  s         

 Vector   38  Occ=2.000000D+00  E=-8.221873D-01
              MO Center=  2.6D-01,  1.3D+00, -2.9D-01, r^2= 8.1D+00
   Bfn.  Coefficient  Atom+Function         Bfn.  Coefficient  Atom+Function  
  ----- ------------  ---------------      ----- ------------  ---------------
   268      0.207496  16 N  px              145      0.177532   9 C  py        
   215     -0.162405  14 C  s         

 Vector   39  Occ=2.000000D+00  E=-8.092900D-01
              MO Center=  5.4D-01,  7.2D-01, -3.1D-01, r^2= 7.9D+00
   Bfn.  Coefficient  Atom+Function         Bfn.  Coefficient  Atom+Function  
  ----- ------------  ---------------      ----- ------------  ---------------
   309      0.313299  19 C  s               268      0.212648  16 N  px        
   361      0.210910  21 N  px              382     -0.210857  22 H  s         
   383     -0.182199  22 H  s         

 Vector   40  Occ=2.000000D+00  E=-7.968704D-01
              MO Center=  1.9D-01, -1.5D+00, -3.2D-01, r^2= 7.3D+00
   Bfn.  Coefficient  Atom+Function         Bfn.  Coefficient  Atom+Function  
  ----- ------------  ---------------      ----- ------------  ---------------
   399      0.253048  23 C  py              560     -0.231367  32 N  px        
   309      0.213637  19 C  s               393     -0.195059  23 C  s         
   513      0.190894  30 C  px              361      0.189567  21 N  px        
   590      0.163204  34 H  s               382     -0.162123  22 H  s         
   471      0.158201  28 S  s               526      0.158259  30 C  dxy       

 Vector   41  Occ=2.000000D+00  E=-7.676756D-01
              MO Center= -2.8D-02, -4.4D-01, -5.6D-01, r^2= 9.1D+00
   Bfn.  Coefficient  Atom+Function         Bfn.  Coefficient  Atom+Function  
  ----- ------------  ---------------      ----- ------------  ---------------
   144      0.208203   9 C  px              581      0.205438  33 H  s         
   139      0.195926   9 C  s               145     -0.184504   9 C  py        
   560     -0.182892  32 N  px              510      0.174614  30 C  px        
   509      0.168574  30 C  s               561      0.167224  32 N  py        
   508     -0.162756  30 C  s               309     -0.159151  19 C  s         

 Vector   42  Occ=2.000000D+00  E=-7.513622D-01
              MO Center=  1.2D+00,  1.8D+00, -5.5D-02, r^2= 8.0D+00
   Bfn.  Coefficient  Atom+Function         Bfn.  Coefficient  Atom+Function  
  ----- ------------  ---------------      ----- ------------  ---------------
   270      0.295833  16 N  pz              289     -0.267099  17 H  s         
   298      0.225848  18 H  s               269      0.174024  16 N  py        

 Vector   43  Occ=2.000000D+00  E=-7.322744D-01
              MO Center= -7.0D-01,  3.8D-01, -3.9D-01, r^2= 7.6D+00
   Bfn.  Coefficient  Atom+Function         Bfn.  Coefficient  Atom+Function  
  ----- ------------  ---------------      ----- ------------  ---------------
   309      0.292732  19 C  s               144     -0.251067   9 C  px        
   312     -0.193266  19 C  py              109     -0.184913   7 N  pz        
    55      0.179318   5 C  s               141     -0.179717   9 C  px        
   145      0.165147   9 C  py              128     -0.150884   8 H  s         
   561      0.151113  32 N  py        

 Vector   44  Occ=2.000000D+00  E=-7.103046D-01
              MO Center= -1.6D+00,  1.8D-01, -4.0D-01, r^2= 7.3D+00
   Bfn.  Coefficient  Atom+Function         Bfn.  Coefficient  Atom+Function  
  ----- ------------  ---------------      ----- ------------  ---------------
    80      0.233310   6 O  s                84     -0.226752   6 O  pz        
    83     -0.196700   6 O  py              561     -0.173575  32 N  py        
    58      0.168247   5 C  py        

 Vector   45  Occ=2.000000D+00  E=-7.074482D-01
              MO Center= -1.2D-01,  5.1D-02, -3.6D-01, r^2= 1.1D+01
   Bfn.  Coefficient  Atom+Function         Bfn.  Coefficient  Atom+Function  
  ----- ------------  ---------------      ----- ------------  ---------------
   561      0.223529  32 N  py              590     -0.203607  34 H  s         
   270     -0.175405  16 N  pz              298     -0.172807  18 H  s         
   139     -0.167404   9 C  s               143     -0.150384   9 C  pz        

 Vector   46  Occ=2.000000D+00  E=-6.915721D-01
              MO Center=  1.2D-01, -6.2D-01, -5.1D-01, r^2= 9.0D+00
   Bfn.  Coefficient  Atom+Function         Bfn.  Coefficient  Atom+Function  
  ----- ------------  ---------------      ----- ------------  ---------------
   399      0.212670  23 C  py              336     -0.182173  20 O  px        
   334     -0.180199  20 O  s               396      0.156506  23 C  py        
   510     -0.154341  30 C  px        

 Vector   47  Occ=2.000000D+00  E=-6.714514D-01
              MO Center= -7.3D-02,  2.4D+00, -1.8D-02, r^2= 6.4D+00
   Bfn.  Coefficient  Atom+Function         Bfn.  Coefficient  Atom+Function  
  ----- ------------  ---------------      ----- ------------  ---------------
   245      0.277256  15 O  pz              218      0.226042  14 C  px        
   241      0.207898  15 O  s               177     -0.158300  11 C  pz        
   248      0.159051  15 O  pz              196      0.157156  12 H  s         

 Vector   48  Occ=2.000000D+00  E=-6.616581D-01
              MO Center=  3.8D-01, -1.0D+00, -3.1D-01, r^2= 7.8D+00
   Bfn.  Coefficient  Atom+Function         Bfn.  Coefficient  Atom+Function  
  ----- ------------  ---------------      ----- ------------  ---------------
   310      0.241930  19 C  s               336      0.200313  20 O  px        
   416      0.190807  24 H  s               397     -0.170879  23 C  pz        
   509     -0.167874  30 C  s               139      0.160196   9 C  s         
   311     -0.152802  19 C  px        

 Vector   49  Occ=2.000000D+00  E=-6.429677D-01
              MO Center=  4.6D-01, -5.4D-01, -4.1D-01, r^2= 6.8D+00
   Bfn.  Coefficient  Atom+Function         Bfn.  Coefficient  Atom+Function  
  ----- ------------  ---------------      ----- ------------  ---------------
   336      0.250506  20 O  px              393      0.182201  23 C  s         
   313      0.180152  19 C  pz              397      0.178684  23 C  pz        

 Vector   50  Occ=2.000000D+00  E=-6.369659D-01
              MO Center= -1.6D+00,  9.1D-01,  1.6D-01, r^2= 7.6D+00
   Bfn.  Coefficient  Atom+Function         Bfn.  Coefficient  Atom+Function  
  ----- ------------  ---------------      ----- ------------  ---------------
     1      0.211275   1 H  s                14     -0.178951   2 C  px        
    44     -0.176269   4 H  s               173      0.167707  11 C  s         
    59     -0.162840   5 C  pz              139     -0.161003   9 C  s         
    15      0.158948   2 C  py        

 Vector   51  Occ=2.000000D+00  E=-6.293170D-01
              MO Center=  4.7D-01,  6.9D-01, -3.8D-01, r^2= 1.1D+01
   Bfn.  Coefficient  Atom+Function         Bfn.  Coefficient  Atom+Function  
  ----- ------------  ---------------      ----- ------------  ---------------
   536      0.208719  31 O  py              142      0.200518   9 C  py        
   219     -0.172906  14 C  py              176     -0.170941  11 C  py        

 Vector   52  Occ=2.000000D+00  E=-6.222902D-01
              MO Center=  6.4D-01, -8.3D-01,  1.6D-01, r^2= 1.1D+01
   Bfn.  Coefficient  Atom+Function         Bfn.  Coefficient  Atom+Function  
  ----- ------------  ---------------      ----- ------------  ---------------
   536      0.213368  31 O  py              430      0.199505  25 C  py        
   459      0.173385  27 H  s               451     -0.157976  26 H  s         
   315      0.155852  19 C  py        

 Vector   53  Occ=2.000000D+00  E=-6.098517D-01
              MO Center= -1.4D+00,  7.6D-01,  7.2D-02, r^2= 7.1D+00
   Bfn.  Coefficient  Atom+Function         Bfn.  Coefficient  Atom+Function  
  ----- ------------  ---------------      ----- ------------  ---------------
    83      0.267204   6 O  py              384     -0.215613  22 H  s         
    59     -0.205767   5 C  pz               58     -0.173241   5 C  py        
   128      0.173351   8 H  s                80     -0.156232   6 O  s         
    16      0.155303   2 C  pz               82      0.155986   6 O  px        

 Vector   54  Occ=2.000000D+00  E=-6.033291D-01
              MO Center=  3.5D-01, -4.9D-01, -4.8D-01, r^2= 1.1D+01
   Bfn.  Coefficient  Atom+Function         Bfn.  Coefficient  Atom+Function  
  ----- ------------  ---------------      ----- ------------  ---------------
   536      0.227972  31 O  py              175      0.184178  11 C  px        
   361      0.164858  21 N  px              533     -0.158515  31 O  s         
   205     -0.153939  13 H  s               206     -0.150873  13 H  s         

 Vector   55  Occ=2.000000D+00  E=-5.969629D-01
              MO Center=  3.2D-01,  2.1D+00,  1.2D-01, r^2= 8.7D+00
   Bfn.  Coefficient  Atom+Function         Bfn.  Coefficient  Atom+Function  
  ----- ------------  ---------------      ----- ------------  ---------------
   220      0.277856  14 C  pz              243      0.266656  15 O  px        
   139     -0.201931   9 C  s               177     -0.197058  11 C  pz        
   241     -0.168975  15 O  s               246      0.160809  15 O  px        
   244     -0.155925  15 O  py        

 Vector   56  Occ=2.000000D+00  E=-5.853702D-01
              MO Center= -1.9D+00,  8.8D-01,  6.7D-01, r^2= 9.3D+00
   Bfn.  Coefficient  Atom+Function         Bfn.  Coefficient  Atom+Function  
  ----- ------------  ---------------      ----- ------------  ---------------
    35      0.304921   3 H  s                36      0.280262   3 H  s         
    15     -0.261809   2 C  py               14     -0.204419   2 C  px        
    13     -0.171797   2 C  s         

 Vector   57  Occ=2.000000D+00  E=-5.717576D-01
              MO Center= -9.1D-02, -1.6D+00, -1.8D-01, r^2= 9.7D+00
   Bfn.  Coefficient  Atom+Function         Bfn.  Coefficient  Atom+Function  
  ----- ------------  ---------------      ----- ------------  ---------------
   511      0.229134  30 C  py              460      0.216537  27 H  s         
   535      0.212186  31 O  px              395     -0.189176  23 C  px        

 Vector   58  Occ=2.000000D+00  E=-5.649381D-01
              MO Center=  1.8D-01,  1.2D+00, -5.3D-01, r^2= 9.7D+00
   Bfn.  Coefficient  Atom+Function         Bfn.  Coefficient  Atom+Function  
  ----- ------------  ---------------      ----- ------------  ---------------
   205      0.273911  13 H  s               175     -0.248041  11 C  px        
   197     -0.209930  12 H  s               217     -0.204722  14 C  s         
   173      0.200977  11 C  s               206      0.191099  13 H  s         
   176      0.170818  11 C  py              196     -0.166688  12 H  s         

 Vector   59  Occ=2.000000D+00  E=-5.613167D-01
              MO Center=  2.3D-01, -5.7D-01, -2.1D-01, r^2= 1.0D+01
   Bfn.  Coefficient  Atom+Function         Bfn.  Coefficient  Atom+Function  
  ----- ------------  ---------------      ----- ------------  ---------------
   173      0.220842  11 C  s               537      0.164519  31 O  pz        
   338     -0.161328  20 O  pz              427      0.159181  25 C  s         
   512      0.156639  30 C  pz        

 Vector   60  Occ=2.000000D+00  E=-5.531042D-01
              MO Center= -9.9D-01, -2.6D-01, -1.0D-01, r^2= 1.0D+01
   Bfn.  Coefficient  Atom+Function         Bfn.  Coefficient  Atom+Function  
  ----- ------------  ---------------      ----- ------------  ---------------
   139      0.217663   9 C  s                 1      0.160378   1 H  s         
    44     -0.157912   4 H  s               337     -0.154994  20 O  py        
   537     -0.151116  31 O  pz        

 Vector   61  Occ=2.000000D+00  E=-5.492615D-01
              MO Center= -1.4D-01,  1.1D+00, -1.5D-01, r^2= 1.0D+01
   Bfn.  Coefficient  Atom+Function         Bfn.  Coefficient  Atom+Function  
  ----- ------------  ---------------      ----- ------------  ---------------
   173      0.191004  11 C  s               244     -0.178652  15 O  py        
    14      0.152155   2 C  px        

 Vector   62  Occ=2.000000D+00  E=-5.371304D-01
              MO Center=  5.9D-01,  4.9D-01, -4.5D-01, r^2= 7.8D+00
   Bfn.  Coefficient  Atom+Function         Bfn.  Coefficient  Atom+Function  
  ----- ------------  ---------------      ----- ------------  ---------------
   338      0.223646  20 O  pz              179      0.208055  11 C  py        
   142     -0.177793   9 C  py              176      0.173404  11 C  py        
   341      0.169516  20 O  pz              162      0.167559  10 H  s         
   429      0.152061  25 C  px        

 Vector   63  Occ=2.000000D+00  E=-5.259385D-01
              MO Center=  8.8D-01, -1.6D+00,  7.4D-01, r^2= 5.2D+00
   Bfn.  Coefficient  Atom+Function         Bfn.  Coefficient  Atom+Function  
  ----- ------------  ---------------      ----- ------------  ---------------
   460      0.263200  27 H  s               497     -0.240083  29 H  s         
   477     -0.231450  28 S  py              430      0.220061  25 C  py        
   450     -0.217467  26 H  s               417      0.203306  24 H  s         
   427     -0.198284  25 C  s               428     -0.192168  25 C  s         
   471      0.186952  28 S  s               416      0.157113  24 H  s         

 Vector   64  Occ=2.000000D+00  E=-4.745874D-01
              MO Center= -1.5D-01,  5.7D-01, -8.6D-01, r^2= 5.5D+00
   Bfn.  Coefficient  Atom+Function         Bfn.  Coefficient  Atom+Function  
  ----- ------------  ---------------      ----- ------------  ---------------
   337      0.403560  20 O  py              340      0.323337  20 O  py        
   139     -0.282383   9 C  s                84      0.260099   6 O  pz        
    87      0.203127   6 O  pz               83     -0.179516   6 O  py        
   109     -0.175272   7 N  pz              384     -0.161113  22 H  s         

 Vector   65  Occ=2.000000D+00  E=-4.615905D-01
              MO Center= -9.1D-01, -6.2D-01,  4.5D-01, r^2= 7.5D+00
   Bfn.  Coefficient  Atom+Function         Bfn.  Coefficient  Atom+Function  
  ----- ------------  ---------------      ----- ------------  ---------------
    82      0.348605   6 O  px               85      0.289800   6 O  px        
   471     -0.272136  28 S  s               478     -0.176663  28 S  pz        
    84     -0.156523   6 O  pz        

 Vector   66  Occ=2.000000D+00  E=-4.587427D-01
              MO Center= -4.6D-01, -1.0D+00,  8.1D-01, r^2= 7.4D+00
   Bfn.  Coefficient  Atom+Function         Bfn.  Coefficient  Atom+Function  
  ----- ------------  ---------------      ----- ------------  ---------------
    82      0.295375   6 O  px              471      0.278265  28 S  s         
    85      0.246253   6 O  px              478      0.232174  28 S  pz        
   434     -0.199679  25 C  pz              481      0.163106  28 S  pz        
   431     -0.161062  25 C  pz              174     -0.158645  11 C  s         
   476     -0.154329  28 S  px        

 Vector   67  Occ=2.000000D+00  E=-4.446611D-01
              MO Center=  5.0D-01,  1.4D+00,  9.1D-02, r^2= 1.1D+01
   Bfn.  Coefficient  Atom+Function         Bfn.  Coefficient  Atom+Function  
  ----- ------------  ---------------      ----- ------------  ---------------
   243      0.329157  15 O  px              246      0.264368  15 O  px        
   245      0.225181  15 O  pz              360      0.223389  21 N  s         
   217      0.213046  14 C  s               310     -0.213522  19 C  s         
   535     -0.187856  31 O  px              140     -0.179751   9 C  s         
   248      0.170752  15 O  pz              417     -0.154180  24 H  s         

 Vector   68  Occ=2.000000D+00  E=-4.365471D-01
              MO Center=  5.5D-01,  2.1D-02, -6.7D-02, r^2= 1.4D+01
   Bfn.  Coefficient  Atom+Function         Bfn.  Coefficient  Atom+Function  
  ----- ------------  ---------------      ----- ------------  ---------------
   535      0.299440  31 O  px              243      0.266113  15 O  px        
   245      0.241574  15 O  pz              538      0.234856  31 O  px        
   246      0.215804  15 O  px              417      0.206170  24 H  s         
   508     -0.200687  30 C  s               248      0.187549  15 O  pz        
   363      0.152072  21 N  pz              536      0.152674  31 O  py        

 Vector   69  Occ=2.000000D+00  E=-4.254265D-01
              MO Center=  1.2D+00,  2.6D+00,  4.8D-01, r^2= 6.6D+00
   Bfn.  Coefficient  Atom+Function         Bfn.  Coefficient  Atom+Function  
  ----- ------------  ---------------      ----- ------------  ---------------
   244      0.342144  15 O  py              269     -0.337921  16 N  py        
   272     -0.285988  16 N  py              247      0.273295  15 O  py        
   267     -0.250330  16 N  s               271     -0.182755  16 N  px        
   268     -0.172277  16 N  px              270      0.165236  16 N  pz        
   245     -0.158327  15 O  pz        

 Vector   70  Occ=2.000000D+00  E=-4.214032D-01
              MO Center= -2.7D-01,  4.3D-01, -6.7D-01, r^2= 6.8D+00
   Bfn.  Coefficient  Atom+Function         Bfn.  Coefficient  Atom+Function  
  ----- ------------  ---------------      ----- ------------  ---------------
   337      0.282267  20 O  py              340      0.232019  20 O  py        
   109      0.195051   7 N  pz              107      0.193997   7 N  px        
   108     -0.194737   7 N  py              145      0.191235   9 C  py        
   111     -0.187500   7 N  py              173     -0.179875  11 C  s         
   112      0.175164   7 N  pz              110      0.170009   7 N  px        

 Vector   71  Occ=2.000000D+00  E=-4.143245D-01
              MO Center= -5.0D-03, -2.8D+00, -6.7D-01, r^2= 6.0D+00
   Bfn.  Coefficient  Atom+Function         Bfn.  Coefficient  Atom+Function  
  ----- ------------  ---------------      ----- ------------  ---------------
   537      0.345118  31 O  pz              562     -0.344367  32 N  pz        
   565     -0.300455  32 N  pz              540      0.270842  31 O  pz        
   360      0.164822  21 N  s               535      0.152310  31 O  px        

 Vector   72  Occ=2.000000D+00  E=-4.041664D-01
              MO Center=  4.9D-01, -1.7D+00, -5.7D-01, r^2= 6.4D+00
   Bfn.  Coefficient  Atom+Function         Bfn.  Coefficient  Atom+Function  
  ----- ------------  ---------------      ----- ------------  ---------------
   363      0.314623  21 N  pz              366      0.290576  21 N  pz        
   338     -0.238558  20 O  pz              562     -0.227681  32 N  pz        
   139     -0.204706   9 C  s               537      0.199829  31 O  pz        
   535     -0.197600  31 O  px              565     -0.195202  32 N  pz        
   341     -0.192581  20 O  pz              427     -0.188544  25 C  s         

 Vector   73  Occ=2.000000D+00  E=-3.679513D-01
              MO Center=  5.6D-01, -1.7D+00,  2.0D+00, r^2= 2.4D+00
   Bfn.  Coefficient  Atom+Function         Bfn.  Coefficient  Atom+Function  
  ----- ------------  ---------------      ----- ------------  ---------------
   479      0.391281  28 S  px              476      0.388553  28 S  px        
   478      0.324062  28 S  pz              481      0.308275  28 S  pz        
    56     -0.195155   5 C  s               309     -0.171431  19 C  s         
   174      0.162136  11 C  s         

 Vector   74  Occ=0.000000D+00  E= 2.477127D-02
              MO Center= -2.5D+00,  2.8D+00, -1.0D+00, r^2= 2.6D+01
   Bfn.  Coefficient  Atom+Function         Bfn.  Coefficient  Atom+Function  
  ----- ------------  ---------------      ----- ------------  ---------------
   384     10.152923  22 H  s               318      5.635404  19 C  py        
   174     -3.742186  11 C  s               164     -2.925996  10 H  s         
   360      2.696360  21 N  s                63     -2.557226   5 C  px        
   207     -2.455003  13 H  s               402      2.394194  23 C  py        
    13     -2.315595   2 C  s               182      2.315930  11 C  py        

 Vector   75  Occ=0.000000D+00  E= 3.413007D-02
              MO Center= -4.8D-02,  1.8D+00,  2.4D-01, r^2= 3.9D+01
   Bfn.  Coefficient  Atom+Function         Bfn.  Coefficient  Atom+Function  
  ----- ------------  ---------------      ----- ------------  ---------------
    63      4.295361   5 C  px              149     -3.354731   9 C  pz        
    65     -2.998225   5 C  pz              147      2.888157   9 C  px        
   148      2.798753   9 C  py               56      2.358682   5 C  s         
   368      2.171944  21 N  py               13      2.129819   2 C  s         
   198     -2.079747  12 H  s               140     -1.871924   9 C  s         

 Vector   76  Occ=0.000000D+00  E= 3.632621D-02
              MO Center=  8.4D-01,  1.8D+00,  8.9D-01, r^2= 3.4D+01
   Bfn.  Coefficient  Atom+Function         Bfn.  Coefficient  Atom+Function  
  ----- ------------  ---------------      ----- ------------  ---------------
   174      5.619384  11 C  s               267     -3.884702  16 N  s         
   318     -3.170191  19 C  py              148     -2.973148   9 C  py        
    56     -2.849187   5 C  s                63     -2.670516   5 C  px        
   217      2.532589  14 C  s               207      2.213164  13 H  s         
   140      2.179197   9 C  s               164      2.181168  10 H  s         

 Vector   77  Occ=0.000000D+00  E= 4.228182D-02
              MO Center= -2.4D+00, -1.3D+00, -1.2D+00, r^2= 3.4D+01
   Bfn.  Coefficient  Atom+Function         Bfn.  Coefficient  Atom+Function  
  ----- ------------  ---------------      ----- ------------  ---------------
   318      2.907090  19 C  py              402      2.863086  23 C  py        
   164      2.752438  10 H  s               207     -2.430183  13 H  s         
   559      2.313244  32 N  s               516      2.241235  30 C  px        
   592      2.216245  34 H  s               149      1.984246   9 C  pz        
     3     -1.905875   1 H  s               148      1.894883   9 C  py        

 Vector   78  Occ=0.000000D+00  E= 5.170458D-02
              MO Center=  1.1D+00,  6.7D-01, -5.3D-01, r^2= 4.0D+01
   Bfn.  Coefficient  Atom+Function         Bfn.  Coefficient  Atom+Function  
  ----- ------------  ---------------      ----- ------------  ---------------
   318      6.120234  19 C  py              149      5.146853   9 C  pz        
   384     -4.955249  22 H  s               198     -3.844421  12 H  s         
   164      3.749451  10 H  s               428      3.734407  25 C  s         
   509     -3.210616  30 C  s               319     -3.017323  19 C  pz        
   461      2.755170  27 H  s               360      2.617881  21 N  s         

 Vector   79  Occ=0.000000D+00  E= 5.450270D-02
              MO Center= -6.3D-01,  4.1D-01, -5.9D-01, r^2= 4.3D+01
   Bfn.  Coefficient  Atom+Function         Bfn.  Coefficient  Atom+Function  
  ----- ------------  ---------------      ----- ------------  ---------------
   198      3.753388  12 H  s               207     -3.507114  13 H  s         
   559     -2.784752  32 N  s               384     -2.626987  22 H  s         
   516     -2.637925  30 C  px              592     -2.411167  34 H  s         
    46      2.357402   4 H  s               418      2.238909  24 H  s         
    63      2.219953   5 C  px              181     -2.047229  11 C  px        

 Vector   80  Occ=0.000000D+00  E= 5.625084D-02
              MO Center= -1.1D+00,  1.2D+00,  1.0D+00, r^2= 3.3D+01
   Bfn.  Coefficient  Atom+Function         Bfn.  Coefficient  Atom+Function  
  ----- ------------  ---------------      ----- ------------  ---------------
   164      3.733111  10 H  s                46      3.360704   4 H  s         
   310      3.003347  19 C  s                37     -2.917787   3 H  s         
   149      2.487504   9 C  pz              217     -2.413525  14 C  s         
   428      2.341616  25 C  s                 3     -2.159086   1 H  s         
   291     -2.121848  17 H  s                20     -1.956141   2 C  px        

 Vector   81  Occ=0.000000D+00  E= 5.846221D-02
              MO Center=  6.1D-01,  2.3D-01, -1.4D-01, r^2= 4.4D+01
   Bfn.  Coefficient  Atom+Function         Bfn.  Coefficient  Atom+Function  
  ----- ------------  ---------------      ----- ------------  ---------------
   164      4.743789  10 H  s               310      4.093515  19 C  s         
   207     -3.652474  13 H  s               452     -3.006116  26 H  s         
   149      2.955900   9 C  pz              360     -2.192532  21 N  s         
   140      2.110348   9 C  s               509      2.019685  30 C  s         
   267      1.976280  16 N  s                46     -1.931369   4 H  s         

 Vector   82  Occ=0.000000D+00  E= 6.280519D-02
              MO Center= -7.7D-01, -4.1D-01,  1.0D-01, r^2= 4.3D+01
   Bfn.  Coefficient  Atom+Function         Bfn.  Coefficient  Atom+Function  
  ----- ------------  ---------------      ----- ------------  ---------------
   217      5.925280  14 C  s                37      4.172258   3 H  s         
   418     -3.855869  24 H  s               106     -3.808322   7 N  s         
   384     -3.034263  22 H  s               130     -3.008195   8 H  s         
   174     -2.825168  11 C  s               461      2.730318  27 H  s         
    13      2.687830   2 C  s               267     -2.658781  16 N  s         

 Vector   83  Occ=0.000000D+00  E= 7.431442D-02
              MO Center=  2.9D-01,  2.0D-01, -1.3D+00, r^2= 4.4D+01
   Bfn.  Coefficient  Atom+Function         Bfn.  Coefficient  Atom+Function  
  ----- ------------  ---------------      ----- ------------  ---------------
   418      5.608334  24 H  s               207      4.686987  13 H  s         
   198     -4.133659  12 H  s               384      3.576762  22 H  s         
   217     -3.535308  14 C  s               310     -3.231573  19 C  s         
     3     -3.144979   1 H  s               403      3.109937  23 C  pz        
    37      3.033704   3 H  s               181      2.712058  11 C  px        

 Vector   84  Occ=0.000000D+00  E= 7.810875D-02
              MO Center=  2.3D+00,  4.1D-01,  9.3D-01, r^2= 3.6D+01
   Bfn.  Coefficient  Atom+Function         Bfn.  Coefficient  Atom+Function  
  ----- ------------  ---------------      ----- ------------  ---------------
   217      7.265210  14 C  s               461      4.976845  27 H  s         
   452     -4.281855  26 H  s               384     -3.503642  22 H  s         
   267     -3.345196  16 N  s               291      3.230925  17 H  s         
   207      3.165762  13 H  s               198     -2.988178  12 H  s         
   436     -2.722036  25 C  py              300     -2.513940  18 H  s         

 Vector   85  Occ=0.000000D+00  E= 8.278887D-02
              MO Center= -1.4D-01,  4.8D-01,  1.0D+00, r^2= 3.7D+01
   Bfn.  Coefficient  Atom+Function         Bfn.  Coefficient  Atom+Function  
  ----- ------------  ---------------      ----- ------------  ---------------
   217      6.850750  14 C  s               174     -5.574186  11 C  s         
   461      5.078706  27 H  s               291     -4.541693  17 H  s         
   499     -4.366075  29 H  s                56      3.867651   5 C  s         
    46      3.722647   4 H  s               472      3.279903  28 S  s         
    63      3.233178   5 C  px              310      2.731527  19 C  s         

 Vector   86  Occ=0.000000D+00  E= 8.441338D-02
              MO Center=  1.4D+00,  8.6D-01,  8.5D-01, r^2= 3.5D+01
   Bfn.  Coefficient  Atom+Function         Bfn.  Coefficient  Atom+Function  
  ----- ------------  ---------------      ----- ------------  ---------------
   198      5.671566  12 H  s               174      4.990487  11 C  s         
   291     -4.815146  17 H  s               452     -4.480708  26 H  s         
   148     -4.367691   9 C  py              217      4.096538  14 C  s         
   428     -3.962330  25 C  s                46     -3.927493   4 H  s         
   461      3.855600  27 H  s               164     -3.758203  10 H  s         

 Vector   87  Occ=0.000000D+00  E= 8.813425D-02
              MO Center= -1.1D+00, -9.7D-02, -1.3D-01, r^2= 3.9D+01
   Bfn.  Coefficient  Atom+Function         Bfn.  Coefficient  Atom+Function  
  ----- ------------  ---------------      ----- ------------  ---------------
   217     16.717174  14 C  s               384      9.201057  22 H  s         
   583     -8.655496  33 H  s               140     -5.937246   9 C  s         
   174     -5.419837  11 C  s               130     -4.997465   8 H  s         
   267     -4.792430  16 N  s               310     -4.602179  19 C  s         
   428      3.604930  25 C  s               226     -3.413080  14 C  pz        

 Vector   88  Occ=0.000000D+00  E= 9.965978D-02
              MO Center= -1.7D+00,  4.6D-01,  1.9D-01, r^2= 3.1D+01
   Bfn.  Coefficient  Atom+Function         Bfn.  Coefficient  Atom+Function  
  ----- ------------  ---------------      ----- ------------  ---------------
   384      9.973140  22 H  s               583     -8.580317  33 H  s         
   310     -7.228940  19 C  s               130      6.489587   8 H  s         
   140     -5.581415   9 C  s               318      4.920589  19 C  py        
   509      4.842105  30 C  s                 3     -3.587200   1 H  s         
    37      3.047717   3 H  s                63     -3.000286   5 C  px        

 Vector   89  Occ=0.000000D+00  E= 1.055466D-01
              MO Center= -1.1D+00,  8.3D-01, -7.8D-01, r^2= 3.0D+01
   Bfn.  Coefficient  Atom+Function         Bfn.  Coefficient  Atom+Function  
  ----- ------------  ---------------      ----- ------------  ---------------
   310     13.602753  19 C  s               384    -12.212829  22 H  s         
   140      8.829493   9 C  s               428     -5.714567  25 C  s         
   130     -5.035883   8 H  s               106     -4.915675   7 N  s         
   147     -4.667123   9 C  px               63     -4.170537   5 C  px        
   149      4.118532   9 C  pz              583      3.830035  33 H  s         

 Vector   90  Occ=0.000000D+00  E= 1.064917D-01
              MO Center=  1.4D-01,  1.6D+00, -2.9D-01, r^2= 3.8D+01
   Bfn.  Coefficient  Atom+Function         Bfn.  Coefficient  Atom+Function  
  ----- ------------  ---------------      ----- ------------  ---------------
   217     24.037371  14 C  s               384    -12.378125  22 H  s         
   148     -9.133019   9 C  py              583      7.770223  33 H  s         
   310     -6.166394  19 C  s               267     -5.980924  16 N  s         
   140     -5.740537   9 C  s               226     -5.451513  14 C  pz        
   181     -5.336845  11 C  px              225     -4.630296  14 C  py        

 Vector   91  Occ=0.000000D+00  E= 1.116618D-01
              MO Center= -5.8D-01,  4.2D-01, -5.4D-01, r^2= 3.3D+01
   Bfn.  Coefficient  Atom+Function         Bfn.  Coefficient  Atom+Function  
  ----- ------------  ---------------      ----- ------------  ---------------
   384     19.914519  22 H  s               217     15.939191  14 C  s         
   174    -15.814766  11 C  s               164     -7.706377  10 H  s         
   509     -7.719333  30 C  s               318      6.501054  19 C  py        
    13     -6.183700   2 C  s               267     -5.621996  16 N  s         
   428      5.076807  25 C  s               149     -4.955585   9 C  pz        

 Vector   92  Occ=0.000000D+00  E= 1.148718D-01
              MO Center=  3.9D-02,  6.5D-01,  8.1D-01, r^2= 3.2D+01
[...]
   217     17.213041  14 C  s               174    -10.895485  11 C  s         
   368     -9.937058  21 N  py              428     -9.512366  25 C  s         
   509      9.385970  30 C  s               559     -8.568396  32 N  s         
    56      8.150154   5 C  s               106     -8.097459   7 N  s         
   384     -8.101676  22 H  s               401      7.300542  23 C  px        

 Vector  176  Occ=0.000000D+00  E= 4.315894D-01
              MO Center= -4.9D-01, -7.0D-01,  1.9D-01, r^2= 2.1D+01
   Bfn.  Coefficient  Atom+Function         Bfn.  Coefficient  Atom+Function  
  ----- ------------  ---------------      ----- ------------  ---------------
   384     14.352338  22 H  s               106     13.319661   7 N  s         
    12    -11.756253   2 C  s                13    -11.695172   2 C  s         
    56    -10.508677   5 C  s               368      8.459644  21 N  py        
    63     -8.012333   5 C  px               36      7.409049   3 H  s         
    45      6.947086   4 H  s                 2      6.833386   1 H  s         

 Vector  177  Occ=0.000000D+00  E= 4.362733D-01
              MO Center= -1.3D+00,  6.3D-01,  4.1D-01, r^2= 2.1D+01
   Bfn.  Coefficient  Atom+Function         Bfn.  Coefficient  Atom+Function  
  ----- ------------  ---------------      ----- ------------  ---------------
   384     13.162617  22 H  s                13    -10.864607   2 C  s         
    56     -8.701248   5 C  s               428     -7.644372  25 C  s         
    63     -7.375664   5 C  px              147     -6.293858   9 C  px        
   267      5.821971  16 N  s                 2      5.467867   1 H  s         
   317      5.224620  19 C  px              583     -4.682257  33 H  s         

 Vector  178  Occ=0.000000D+00  E= 4.425629D-01
              MO Center= -5.7D-01,  5.9D-01,  2.5D-02, r^2= 2.1D+01
   Bfn.  Coefficient  Atom+Function         Bfn.  Coefficient  Atom+Function  
  ----- ------------  ---------------      ----- ------------  ---------------
   310    -24.691236  19 C  s               217     23.965706  14 C  s         
   267    -17.955177  16 N  s               140    -13.946465   9 C  s         
   509     11.905895  30 C  s               148    -11.564751   9 C  py        
   317      9.723592  19 C  px              174      9.420573  11 C  s         
   384      8.880524  22 H  s               149     -7.073408   9 C  pz        

 Vector  179  Occ=0.000000D+00  E= 4.486932D-01
              MO Center=  3.9D-01,  6.2D-01,  7.2D-02, r^2= 1.7D+01
   Bfn.  Coefficient  Atom+Function         Bfn.  Coefficient  Atom+Function  
  ----- ------------  ---------------      ----- ------------  ---------------
   509    -16.981894  30 C  s               360     16.708708  21 N  s         
   310    -14.655620  19 C  s               267    -11.721864  16 N  s         
   149    -10.788807   9 C  pz              140     -9.658404   9 C  s         
   428      9.478866  25 C  s               106      9.187674   7 N  s         
   217      9.185281  14 C  s               384      7.133372  22 H  s         

 Vector  180  Occ=0.000000D+00  E= 4.537539D-01
              MO Center=  1.7D-01,  2.1D-01, -1.3D-01, r^2= 2.0D+01
   Bfn.  Coefficient  Atom+Function         Bfn.  Coefficient  Atom+Function  
  ----- ------------  ---------------      ----- ------------  ---------------
   174     27.307831  11 C  s                56    -19.049981   5 C  s         
   148    -15.898609   9 C  py              318     15.243838  19 C  py        
   310    -11.484980  19 C  s               360      9.075548  21 N  s         
   384      7.921226  22 H  s               149      6.673638   9 C  pz        
   182     -6.515940  11 C  py              140     -6.242222   9 C  s         

 Vector  181  Occ=0.000000D+00  E= 4.584693D-01
              MO Center=  1.3D-01, -6.5D-01, -3.7D-01, r^2= 2.0D+01
   Bfn.  Coefficient  Atom+Function         Bfn.  Coefficient  Atom+Function  
  ----- ------------  ---------------      ----- ------------  ---------------
   174      7.766223  11 C  s               148     -6.432525   9 C  py        
    56     -6.097064   5 C  s               384     -5.811314  22 H  s         
   403     -5.254184  23 C  pz              368      4.845281  21 N  py        
   472      4.471463  28 S  s               310     -4.399662  19 C  s         
   173     -4.156044  11 C  s               509     -4.113135  30 C  s         

 Vector  182  Occ=0.000000D+00  E= 4.599907D-01
              MO Center= -5.2D-01, -7.8D-03, -1.9D-01, r^2= 1.8D+01
   Bfn.  Coefficient  Atom+Function         Bfn.  Coefficient  Atom+Function  
  ----- ------------  ---------------      ----- ------------  ---------------
   174     23.176010  11 C  s               384    -21.972613  22 H  s         
   310    -18.897198  19 C  s                13     18.375281   2 C  s         
   360     16.421594  21 N  s                12     12.717669   2 C  s         
   140    -12.533107   9 C  s               509    -11.931414  30 C  s         
   318    -11.367642  19 C  py              367     10.498435  21 N  px        

 Vector  183  Occ=0.000000D+00  E= 4.658086D-01
              MO Center= -6.5D-01, -2.7D-01,  2.4D-01, r^2= 1.9D+01
   Bfn.  Coefficient  Atom+Function         Bfn.  Coefficient  Atom+Function  
  ----- ------------  ---------------      ----- ------------  ---------------
   384     15.195357  22 H  s                56    -11.852340   5 C  s         
   174     10.934466  11 C  s               318     10.680681  19 C  py        
   147    -10.184617   9 C  px               13     -7.759564   2 C  s         
   509     -7.681409  30 C  s                81      6.866860   6 O  s         
   115      6.468109   7 N  pz              149      6.113932   9 C  pz        

 Vector  184  Occ=0.000000D+00  E= 4.675100D-01
              MO Center= -4.4D-01,  2.4D-01,  2.7D-01, r^2= 2.0D+01
   Bfn.  Coefficient  Atom+Function         Bfn.  Coefficient  Atom+Function  
  ----- ------------  ---------------      ----- ------------  ---------------
   384     27.088750  22 H  s               217     19.153858  14 C  s         
    13    -15.571614   2 C  s                56    -15.136515   5 C  s         
    12    -12.700625   2 C  s               318     10.345000  19 C  py        
   402      9.461258  23 C  py               63     -8.747851   5 C  px        
    45      7.882807   4 H  s                 2      7.839973   1 H  s         

 Vector  185  Occ=0.000000D+00  E= 4.721363D-01
              MO Center= -3.1D-01, -2.0D-01,  9.7D-02, r^2= 2.0D+01
   Bfn.  Coefficient  Atom+Function         Bfn.  Coefficient  Atom+Function  
  ----- ------------  ---------------      ----- ------------  ---------------
   428    -11.955760  25 C  s               367     11.659067  21 N  px        
   402     -7.648540  23 C  py              149      6.389462   9 C  pz        
   403      5.712782  23 C  pz              401      5.663519  23 C  px        
   174      5.634456  11 C  s               217      5.489813  14 C  s         
   267     -5.298850  16 N  s               383      5.134276  22 H  s         

 Vector  186  Occ=0.000000D+00  E= 4.762584D-01
              MO Center= -2.3D-01, -2.1D-01,  9.8D-02, r^2= 1.9D+01
   Bfn.  Coefficient  Atom+Function         Bfn.  Coefficient  Atom+Function  
  ----- ------------  ---------------      ----- ------------  ---------------
   310     21.655115  19 C  s               509    -17.624365  30 C  s         
   174    -13.661217  11 C  s               384    -13.273004  22 H  s         
   140     12.734495   9 C  s               217     11.978042  14 C  s         
   318    -10.693924  19 C  py              368    -10.097548  21 N  py        
   267     -8.783208  16 N  s               428     -8.374192  25 C  s         

 Vector  187  Occ=0.000000D+00  E= 4.789633D-01
              MO Center=  4.7D-01, -2.0D-01,  2.9D-01, r^2= 2.0D+01
   Bfn.  Coefficient  Atom+Function         Bfn.  Coefficient  Atom+Function  
  ----- ------------  ---------------      ----- ------------  ---------------
   509     33.920274  30 C  s               428    -29.485450  25 C  s         
   310    -17.171331  19 C  s               140    -14.998954   9 C  s         
    56     14.329830   5 C  s               402     11.197667  23 C  py        
   401     10.568268  23 C  px              403      9.781077  23 C  pz        
   427     -9.553901  25 C  s               360      9.195531  21 N  s         

 Vector  188  Occ=0.000000D+00  E= 4.816370D-01
              MO Center= -1.4D-01,  1.4D+00, -2.9D-01, r^2= 1.9D+01
   Bfn.  Coefficient  Atom+Function         Bfn.  Coefficient  Atom+Function  
  ----- ------------  ---------------      ----- ------------  ---------------
   174     10.467437  11 C  s               318     -8.446551  19 C  py        
   106      8.136822   7 N  s               217     -7.612407  14 C  s         
   148     -7.377084   9 C  py              310     -6.554007  19 C  s         
   368     -5.940175  21 N  py              384      5.887068  22 H  s         
   317      5.783476  19 C  px              113      5.628824   7 N  px        

 Vector  189  Occ=0.000000D+00  E= 4.925503D-01
              MO Center=  3.3D-01, -3.1D-01,  1.6D-01, r^2= 1.9D+01
   Bfn.  Coefficient  Atom+Function         Bfn.  Coefficient  Atom+Function  
  ----- ------------  ---------------      ----- ------------  ---------------
   428     43.367567  25 C  s               318     15.908396  19 C  py        
   217     12.633200  14 C  s               403    -11.147788  23 C  pz        
   384    -10.761329  22 H  s               509     -9.756816  30 C  s         
   472     -9.566858  28 S  s               149      9.436194   9 C  pz        
   451     -9.344052  26 H  s               435     -9.016560  25 C  px        

 Vector  190  Occ=0.000000D+00  E= 4.933194D-01
              MO Center=  2.7D-01, -4.2D-01,  1.0D-01, r^2= 1.8D+01
   Bfn.  Coefficient  Atom+Function         Bfn.  Coefficient  Atom+Function  
  ----- ------------  ---------------      ----- ------------  ---------------
   384     18.032887  22 H  s               174     14.551059  11 C  s         
   318    -10.964349  19 C  py               56     -9.902464   5 C  s         
   428     -9.883371  25 C  s               310     -8.518692  19 C  s         
   317      7.391547  19 C  px              106      7.182283   7 N  s         
   367     -5.871916  21 N  px              149     -5.647699   9 C  pz        

 Vector  191  Occ=0.000000D+00  E= 4.957275D-01
              MO Center= -3.4D-01,  8.1D-01, -1.1D-01, r^2= 2.0D+01
   Bfn.  Coefficient  Atom+Function         Bfn.  Coefficient  Atom+Function  
  ----- ------------  ---------------      ----- ------------  ---------------
   174     28.596003  11 C  s               318    -16.441910  19 C  py        
    13     15.976747   2 C  s               360    -13.005541  21 N  s         
   206    -12.911088  13 H  s               217    -12.957721  14 C  s         
   173     11.824738  11 C  s               402    -10.578600  23 C  py        
    56     -9.418185   5 C  s               428     -8.811355  25 C  s         

 Vector  192  Occ=0.000000D+00  E= 5.033529D-01
              MO Center=  2.9D-01, -2.6D-01,  2.3D-02, r^2= 1.8D+01
   Bfn.  Coefficient  Atom+Function         Bfn.  Coefficient  Atom+Function  
  ----- ------------  ---------------      ----- ------------  ---------------
   428     20.353746  25 C  s                56     15.114752   5 C  s         
   384    -11.158496  22 H  s               217     10.999741  14 C  s         
   310     -9.850555  19 C  s               367      9.466809  21 N  px        
    12      9.412301   2 C  s                13      9.395697   2 C  s         
   173     -8.973133  11 C  s               394     -7.917498  23 C  s         


 center of mass
 --------------
 x =   0.02828631 y =  -0.03975698 z =  -0.00489041

 moments of inertia (a.u.)
 ------------------
        6705.097461154333          -0.000000000001           0.000000000001
          -0.000000000001        3532.881013304000          -0.000000000001
           0.000000000001          -0.000000000001        7743.784900409529

  Mulliken analysis of the total density
  --------------------------------------

    Atom       Charge   Shell Charges
 -----------   ------   -------------------------------------------------------
    1 H    1     0.79   0.76  0.06  0.01  0.03 -0.06
    2 C    6     6.37   2.01  0.66  0.28  0.20  2.07  0.99 -0.02  0.06  0.12
    3 H    1     0.99   0.76  0.25  0.01  0.03 -0.06
    4 H    1     0.82   0.76  0.08  0.01  0.03 -0.06
    5 C    6     5.29   2.01  0.68  0.11  0.01  1.89  0.39 -0.03  0.24 -0.01
    6 O    8     8.86   2.01  0.81  1.01  0.19  2.81  1.88  0.15  0.02 -0.01
    7 N    7     7.54   2.01  0.72  0.81 -0.11  2.45  1.42  0.16  0.05  0.03
    8 H    1     0.94   0.74  0.19 -0.01  0.06 -0.05
    9 C    6     6.65   2.01  0.66  0.08  0.09  1.99  1.48  0.09  0.14  0.12
   10 H    1     0.97   0.78  0.14  0.02  0.03 -0.00
   11 C    6     6.37   2.01  0.66  0.72 -0.05  2.06  0.79 -0.02  0.09  0.11
   12 H    1     0.87   0.77  0.14 -0.01  0.03 -0.06
   13 H    1     0.84   0.77  0.12 -0.01  0.03 -0.07
   14 C    6     4.53   2.01  0.68  0.02 -0.04  1.91 -0.19  0.01  0.24 -0.12
   15 O    8     8.83   2.01  0.82  1.02  0.19  2.80  1.84  0.13  0.02 -0.00
   16 N    7     7.22   2.01  0.72  0.76 -0.12  2.47  1.25  0.11  0.04 -0.02
   17 H    1     0.88   0.73  0.16 -0.01  0.06 -0.06
   18 H    1     0.99   0.76  0.22 -0.01  0.05 -0.03
   19 C    6     4.67   2.01  0.68  0.01  0.11  1.88  0.05  0.05  0.24 -0.37
   20 O    8     8.92   2.01  0.82  1.05  0.20  2.80  1.88  0.16  0.01  0.00
   21 N    7     7.17   2.01  0.72  0.87 -0.26  2.46  1.39 -0.13  0.06  0.07
   22 H    1     0.90   0.74  0.35 -0.11  0.06 -0.15
   23 C    6     6.24   2.01  0.66  0.12 -0.05  1.99  1.34 -0.03  0.14  0.06
   24 H    1     1.15   0.77  0.36 -0.00  0.03  0.00
   25 C    6     5.62   2.01  0.66  0.02 -0.17  1.99  0.99  0.02  0.10 -0.00
   26 H    1     1.11   0.76  0.35 -0.01  0.03 -0.02
   27 H    1     1.16   0.77  0.38 -0.00  0.03 -0.02
   28 S   16    15.65   2.00  2.03  0.87  0.74  0.05  6.00  2.31  1.64  0.07  0.10 -0.15
   29 H    1     1.00   0.72  0.19  0.01  0.03  0.06
   30 C    6     4.72   2.01  0.68  0.13  0.06  1.89 -0.19  0.04  0.24 -0.12
   31 O    8     8.78   2.01  0.82  1.03  0.18  2.79  1.83  0.13  0.01 -0.01
   32 N    7     7.23   2.01  0.72  0.82 -0.12  2.46  1.25  0.08  0.04 -0.02
   33 H    1     0.96   0.75  0.23 -0.01  0.06 -0.07
   34 H    1     0.99   0.75  0.21 -0.00  0.05 -0.03

       Multipole analysis of the density wrt the origin
       ------------------------------------------------

     L   x y z        total         open         nuclear
     -   - - -        -----         ----         -------
     0   0 0 0      0.000000      0.000000    146.000000

     1   1 0 0     -0.836942      0.000000      0.000000
     1   0 1 0      1.706968      0.000000      0.000000
     1   0 0 1     -0.255303      0.000000     -0.000000

     2   2 0 0    -77.954330      0.000000   1280.912283
     2   1 1 0      4.194268      0.000000     -3.026167
     2   1 0 1      0.773746      0.000000    -10.895631
     2   0 2 0   -104.051927      0.000000   2883.369250
     2   0 1 1     -5.324652      0.000000     -3.146033
     2   0 0 2    -88.988488      0.000000    673.682837


 Task  times  cpu:     4131.2s     wall:     4144.0s


                                NWChem Input Module
                                -------------------


 Summary of allocated global arrays
-----------------------------------
  No active global arrays


MA_summarize_allocated_blocks: starting scan ...
MA_summarize_allocated_blocks: scan completed: 0 heap blocks, 0 stack blocks
MA usage statistics:

	allocation statistics:
					      heap	     stack
					      ----	     -----
	current number of blocks	         0	         0
	maximum number of blocks	        16	        14
	current total bytes		         0	         0
	maximum total bytes		    136720	  33860776
	maximum total K-bytes		       137	     33861
	maximum total M-bytes		         1	        34


                                     CITATION
                                     --------
                Please cite the following reference when publishing
                           results obtained with NWChem:

          E. Apra, E. J. Bylaska, W. A. de Jong, N. Govind, K. Kowalski,
       T. P. Straatsma, M. Valiev, H. J. J. van Dam, Y. Alexeev, J. Anchell,
       V. Anisimov, F. W. Aquino, R. Atta-Fynn, J. Autschbach, N. P. Bauman,
     J. C. Becca, D. E. Bernholdt, K. Bhaskaran-Nair, S. Bogatko, P. Borowski,
         J. Boschen, J. Brabec, A. Bruner, E. Cauet, Y. Chen, G. N. Chuev,
      C. J. Cramer, J. Daily, M. J. O. Deegan, T. H. Dunning Jr., M. Dupuis,
   K. G. Dyall, G. I. Fann, S. A. Fischer, A. Fonari, H. Fruchtl, L. Gagliardi,
      J. Garza, N. Gawande, S. Ghosh, K. Glaesemann, A. W. Gotz, J. Hammond,
       V. Helms, E. D. Hermes, K. Hirao, S. Hirata, M. Jacquelin, L. Jensen,
   B. G. Johnson, H. Jonsson, R. A. Kendall, M. Klemm, R. Kobayashi, V. Konkov,
      S. Krishnamoorthy, M. Krishnan, Z. Lin, R. D. Lins, R. J. Littlefield,
      A. J. Logsdail, K. Lopata, W. Ma, A. V. Marenich, J. Martin del Campo,
   D. Mejia-Rodriguez, J. E. Moore, J. M. Mullin, T. Nakajima, D. R. Nascimento,
    J. A. Nichols, P. J. Nichols, J. Nieplocha, A. Otero-de-la-Roza, B. Palmer,
    A. Panyala, T. Pirojsirikul, B. Peng, R. Peverati, J. Pittner, L. Pollack,
   R. M. Richard, P. Sadayappan, G. C. Schatz, W. A. Shelton, D. W. Silverstein,
   D. M. A. Smith, T. A. Soares, D. Song, M. Swart, H. L. Taylor, G. S. Thomas,
            V. Tipparaju, D. G. Truhlar, K. Tsemekhman, T. Van Voorhis,
      A. Vazquez-Mayagoitia, P. Verma, O. Villa, A. Vishnu, K. D. Vogiatzis,
        D. Wang, J. H. Weare, M. J. Williamson, T. L. Windus, K. Wolinski,
        A. T. Wong, Q. Wu, C. Yang, Q. Yu, M. Zacharias, Z. Zhang, Y. Zhao,
                                and R. J. Harrison
                        "NWChem: Past, present, and future
                         J. Chem. Phys. 152, 184102 (2020)
                               doi:10.1063/5.0004997

                                      AUTHORS
                                      -------
  E. Apra, E. J. Bylaska, N. Govind, K. Kowalski, M. Valiev, D. Mejia-Rodriguez,
       A. Kunitsa, N. P. Bauman, A. Panyala, W. A. de Jong, T. P. Straatsma,
   H. J. J. van Dam, D. Wang, T. L. Windus, J. Hammond, J. Autschbach, A. Woods,
    K. Bhaskaran-Nair, J. Brabec, K. Lopata, S. A. Fischer, S. Krishnamoorthy,
     M. Jacquelin, W. Ma, M. Klemm, O. Villa, Y. Chen, V. Anisimov, F. Aquino,
     S. Hirata, M. T. Hackler, E. Hermes, L. Jensen, J. E. Moore, J. C. Becca,
      V. Konjkov, T. Risthaus, M. Malagoli, A. Marenich, A. Otero-de-la-Roza,
        J. Mullin, P. Nichols, R. Peverati, J. Pittner, Y. Zhao, P.-D. Fan,
        A. Fonari, M. J. Williamson, R. J. Harrison, J. R. Rehr, M. Dupuis,
     D. Silverstein, D. M. A. Smith, J. Nieplocha, V. Tipparaju, M. Krishnan,
     B. E. Van Kuiken, A. Vazquez-Mayagoitia, M. Swart, Q. Wu, T. Van Voorhis,
     A. A. Auer, M. Nooijen, L. D. Crosby, E. Brown, G. Cisneros, G. I. Fann,
   H. Fruchtl, J. Garza, K. Hirao, R. A. Kendall, J. A. Nichols, K. Tsemekhman,
    K. Wolinski, J. Anchell, D. E. Bernholdt, P. Borowski, T. Clark, D. Clerc,
   H. Dachsel, M. J. O. Deegan, K. Dyall, D. Elwood, E. Glendening, M. Gutowski,
   A. C. Hess, J. Jaffe, B. G. Johnson, J. Ju, R. Kobayashi, R. Kutteh, Z. Lin,
   R. Littlefield, X. Long, B. Meng, T. Nakajima, S. Niu, L. Pollack, M. Rosing,
   K. Glaesemann, G. Sandrone, M. Stave, H. Taylor, G. Thomas, J. H. van Lenthe,
                               A. T. Wong, Z. Zhang.

 Total times  cpu:     4131.3s     wall:     4144.5s
