export TMOUT=5400
export TMPDIR=/tmp
export PTMPDIR=/tmp/ptmp
 argument  1 = inputs/ASN_ASN_1.nw



============================== echo of input deck ==============================
start ASN_ASN_1
geometry
H          2.11400        9.27700        4.07800
C          1.48500        9.81800        3.37100
H          1.24300       10.80000        3.77200
H          0.57000        9.25600        3.19200
C          2.23400        9.97500        2.07100
O          1.81300        9.45100        1.04400
N          3.36700       10.67300        2.11000
H          3.65700       11.03600        3.01000
C          4.25700       10.93600        0.96600
H          3.63200       11.23800        0.12400
C          5.16700       12.12700        1.32500
H          5.83800       12.34800        0.49500
H          4.55100       13.00900        1.50000
C          5.98600       11.87200        2.57700
O          5.61200       12.26100        3.66800
N          7.08600       11.16900        2.46900
H          7.58900       10.98000        3.31500
H          7.30400       10.73800        1.58000
C          5.04700        9.69000        0.48200
O          6.21700        9.78600        0.10800
N          4.42300        8.51400        0.53300
H          3.46100        8.53500        0.85100
C          5.03900        7.19900        0.34200
H          5.86600        7.29800       -0.36300
C          5.60500        6.73500        1.69800
H          6.14600        5.79800        1.56800
H          6.30800        7.47800        2.07400
C          4.51500        6.54000        2.73800
O          4.18800        7.42600        3.50600
N          3.88600        5.38900        2.75800
H          3.16000        5.28100        3.44200
H          4.08600        4.70100        2.04600
C          4.06200        6.16200       -0.26100
O          4.30100        4.96100       -0.18600
N          2.92600        6.58200       -0.80700
H          2.28800        5.89400       -1.17200
H          2.70400        7.56500       -0.82700
end

basis
 * library aug-cc-pvdz
end

echo

scf
 direct
end

task scf energy
================================================================================


                                         
                                         


             Northwest Computational Chemistry Package (NWChem) 7.2.0
             --------------------------------------------------------


                    Environmental Molecular Sciences Laboratory
                       Pacific Northwest National Laboratory
                                Richland, WA 99352

                              Copyright (c) 1994-2022
                       Pacific Northwest National Laboratory
                            Battelle Memorial Institute

             NWChem is an open-source computational chemistry package
                        distributed under the terms of the
                      Educational Community License (ECL) 2.0
             A copy of the license is included with this distribution
                              in the LICENSE.TXT file

                                  ACKNOWLEDGMENT
                                  --------------

            This software and its documentation were developed at the
            EMSL at Pacific Northwest National Laboratory, a multiprogram
            national laboratory, operated for the U.S. Department of Energy
            by Battelle under Contract Number DE-AC05-76RL01830. Support
            for this work was provided by the Department of Energy Office
            of Biological and Environmental Research, Office of Basic
            Energy Sciences, and the Office of Advanced Scientific Computing.


           Job information
           ---------------

    hostname        = nova21-swift-2
    program         = /opt/rit/el9/20230413/app/linux-rhel9-x86_64_v3/gcc-11.2.1/nwchem-7.2.0-oxtctbuhfuzyfaoziquq6bki22grib3g/bin/nwchem
    date            = Thu Jul 10 02:32:24 2025

    compiled        = Wed_May_17_23:46:39_2023
    source          = /tmp/root/spack-stage/spack-stage-nwchem-7.2.0-oxtctbuhfuzyfaoziquq6bki22grib3g/spack-src
    nwchem branch   = 7.2.0
    nwchem revision = d0d141fd
    ga revision     = 5.8.0
    use scalapack   = T
    input           = inputs/ASN_ASN_1.nw
    prefix          = ASN_ASN_1.
    data base       = ./ASN_ASN_1.db
    status          = startup
    nproc           =        8
    time left       =     -1s



           Memory information
           ------------------

    heap     =   26214396 doubles =    200.0 Mbytes
    stack    =   26214401 doubles =    200.0 Mbytes
    global   =   52428800 doubles =    400.0 Mbytes (distinct from heap & stack)
    total    =  104857597 doubles =    800.0 Mbytes
    verify   = yes
    hardfail = no 


           Directory information
           ---------------------

  0 permanent = .
  0 scratch   = .




                                NWChem Input Module
                                -------------------



 Scaling coordinates for geometry "geometry" by  1.889725989
 (inverse scale =  0.529177249)

 C1  symmetry detected

          ------
          auto-z
          ------
  no constraints, skipping    0.0000000000000000     
  no constraints, skipping    0.0000000000000000     


                             Geometry "geometry" -> ""
                             -------------------------

 Output coordinates in angstroms (scale by  1.889725989 to convert to a.u.)

  No.       Tag          Charge          X              Y              Z
 ---- ---------------- ---------- -------------- -------------- --------------
    1 H                    1.0000    -3.01246282     0.62098594     1.44507967
    2 C                    6.0000    -3.39891946     0.81956325     0.44538506
    3 H                    1.0000    -3.86383116     1.80288351     0.42033771
    4 H                    1.0000    -4.12977681     0.05816149     0.17850512
    5 C                    6.0000    -2.25576034     0.77731129    -0.53800296
    6 O                    8.0000    -2.22950570    -0.07135198    -1.42435918
    7 N                    7.0000    -1.28597348     1.67418249    -0.37202257
    8 H                    1.0000    -1.37280210     2.31122929     0.41060196
    9 C                    6.0000    -0.07782008     1.80125931    -1.20522234
   10 H                    1.0000    -0.38882644     1.73965987    -2.24938399
   11 C                    6.0000     0.52199594     3.20251510    -0.97682588
   12 H                    1.0000     1.41904384     3.32828753    -1.58301756
   13 H                    1.0000    -0.20010294     3.95693959    -1.28895071
   14 C                    6.0000     0.86268573     3.45506125     0.48037723
   15 O                    8.0000     0.08828007     4.03320503     1.22032564
   16 N                    7.0000     1.99295383     2.98449950     0.94614398
   17 H                    1.0000     2.17797169     3.12925660     1.92044361
   18 H                    1.0000     2.55466082     2.38833794     0.35227307
   19 C                    6.0000     0.95201893     0.65722760    -1.00151899
   20 O                    8.0000     2.16283989     0.88503206    -1.00463694
   21 N                    7.0000     0.47054758    -0.56477797    -0.77826858
   22 H                    1.0000    -0.53865199    -0.65501742    -0.79781519
   23 C                    6.0000     1.24124705    -1.73205462    -0.34393052
   24 H                    1.0000     2.25085416    -1.65725028    -0.75118081
   25 C                    6.0000     1.33053093    -1.70035824     1.19405899
   26 H                    1.0000     1.97236949    -2.50996895     1.54064775
   27 H                    1.0000     1.77633475    -0.75908788     1.51484405
   28 C                    6.0000    -0.03319214    -1.83077102     1.85054729
   29 O                    8.0000    -0.69820438    -0.85886175     2.15860588
   30 N                    7.0000    -0.51075301    -3.03832119     2.03655860
   31 H                    1.0000    -1.41814016    -3.10681465     2.45911418
   32 H                    1.0000    -0.00330660    -3.83421469     1.67692035
   33 C                    6.0000     0.65075964    -3.06546200    -0.86051194
   34 O                    8.0000     0.96516004    -4.13118684    -0.34038699
   35 N                    7.0000    -0.25213872    -3.04081551    -1.83477017
   36 H                    1.0000    -0.64690690    -3.91421859    -2.14289051
   37 H                    1.0000    -0.54871684    -2.16298419    -2.23154038

      Atomic Mass 
      ----------- 

      H                  1.007825
      C                 12.000000
      O                 15.994910
      N                 14.003070


 Effective nuclear repulsion energy (a.u.)    1736.6456982814

            Nuclear Dipole moment (a.u.) 
            ----------------------------
        X                 Y               Z
 ---------------- ---------------- ----------------
     0.0000000000     0.0000000000     0.0000000000



                                Z-matrix (autoz)
                                -------- 

 Units are Angstrom for bonds and degrees for angles

      Type          Name      I     J     K     L     M      Value
      ----------- --------  ----- ----- ----- ----- ----- ----------
    1 Stretch                  1     2                       1.09003
    2 Stretch                  2     3                       1.08797
    3 Stretch                  2     4                       1.08863
    4 Stretch                  2     5                       1.50853
    5 Stretch                  5     6                       1.22741
    6 Stretch                  5     7                       1.33132
    7 Stretch                  7     8                       1.01285
    8 Stretch                  7     9                       1.47309
    9 Stretch                  9    10                       1.09123
   10 Stretch                  9    11                       1.54125
   11 Stretch                  9    19                       1.55270
   12 Stretch                 11    12                       1.08995
   13 Stretch                 11    13                       1.08996
   14 Stretch                 11    14                       1.51766
   15 Stretch                 14    15                       1.21716
   16 Stretch                 14    16                       1.30991
   17 Stretch                 16    17                       1.00222
   18 Stretch                 16    18                       1.01173
   19 Stretch                 19    20                       1.23207
   20 Stretch                 19    21                       1.33227
   21 Stretch                 21    22                       1.01341
   22 Stretch                 21    23                       1.46464
   23 Stretch                 23    24                       1.09122
   24 Stretch                 23    25                       1.54090
   25 Stretch                 23    33                       1.54710
   26 Stretch                 25    26                       1.08975
   27 Stretch                 25    27                       1.08979
   28 Stretch                 25    28                       1.51912
   29 Stretch                 28    29                       1.21727
   30 Stretch                 28    30                       1.31181
   31 Stretch                 30    31                       1.00329
   32 Stretch                 30    32                       1.01009
   33 Stretch                 33    34                       1.22684
   34 Stretch                 33    35                       1.32854
   35 Stretch                 35    36                       1.00678
   36 Stretch                 35    37                       1.00795
   37 Bend                     1     2     3               109.71038
   38 Bend                     1     2     4               109.59928
   39 Bend                     1     2     5               108.91049
   40 Bend                     2     5     6               120.41930
   41 Bend                     2     5     7               116.86367
   42 Bend                     3     2     4               109.85307
   43 Bend                     3     2     5               109.51954
   44 Bend                     4     2     5               109.22944
   45 Bend                     5     7     8               117.23246
   46 Bend                     5     7     9               125.80478
   47 Bend                     6     5     7               122.70005
   48 Bend                     7     9    10               107.61373
   49 Bend                     7     9    11               108.28791
   50 Bend                     7     9    19               113.96659
   51 Bend                     8     7     9               116.94250
   52 Bend                     9    11    12               110.04709
   53 Bend                     9    11    13               109.20954
   54 Bend                     9    11    14               112.39184
   55 Bend                     9    19    20               121.01456
   56 Bend                     9    19    21               117.26512
   57 Bend                    10     9    11               107.70008
   58 Bend                    10     9    19               105.84125
   59 Bend                    11     9    19               113.09842
   60 Bend                    11    14    15               121.32751
   61 Bend                    11    14    16               118.38057
   62 Bend                    12    11    13               107.82533
   63 Bend                    12    11    14               109.27212
   64 Bend                    13    11    14               107.96881
   65 Bend                    14    16    17               116.94076
   66 Bend                    14    16    18               118.81700
   67 Bend                    15    14    16               120.22882
   68 Bend                    17    16    18               123.59000
   69 Bend                    19    21    22               115.99741
   70 Bend                    19    21    23               126.19518
   71 Bend                    20    19    21               121.68004
   72 Bend                    21    23    24               108.75626
   73 Bend                    21    23    25               108.06434
   74 Bend                    21    23    33               112.77013
   75 Bend                    22    21    23               117.30776
   76 Bend                    23    25    26               109.65088
   77 Bend                    23    25    27               109.58887
   78 Bend                    23    25    28               112.18210
   79 Bend                    23    33    34               120.61841
   80 Bend                    23    33    35               119.22667
   81 Bend                    24    23    25               108.51072
   82 Bend                    24    23    33               106.71417
   83 Bend                    25    23    33               111.90792
   84 Bend                    25    28    29               122.09005
   85 Bend                    25    28    30               117.84689
   86 Bend                    26    25    27               107.88650
   87 Bend                    26    25    28               109.11757
   88 Bend                    27    25    28               108.31077
   89 Bend                    28    30    31               116.85998
   90 Bend                    28    30    32               119.46834
   91 Bend                    29    28    30               120.01366
   92 Bend                    31    30    32               123.40247
   93 Bend                    33    35    36               118.34776
   94 Bend                    33    35    37               120.31765
   95 Bend                    34    33    35               120.07795
   96 Bend                    36    35    37               121.31084
   97 Torsion                  1     2     5     6         116.55010
   98 Torsion                  1     2     5     7         -61.99103
   99 Torsion                  2     5     7     8           1.06837
  100 Torsion                  2     5     7     9         179.37386
  101 Torsion                  3     2     5     6        -123.47024
  102 Torsion                  3     2     5     7          57.98863
  103 Torsion                  4     2     5     6          -3.12138
  104 Torsion                  4     2     5     7         178.33749
  105 Torsion                  5     7     9    10          45.48320
  106 Torsion                  5     7     9    11         161.64330
  107 Torsion                  5     7     9    19         -71.55297
  108 Torsion                  6     5     7     8        -177.43664
  109 Torsion                  6     5     7     9           0.86885
  110 Torsion                  7     9    11    12        -179.89006
  111 Torsion                  7     9    11    13         -61.71202
  112 Torsion                  7     9    11    14          58.08188
  113 Torsion                  7     9    19    20        -141.64012
  114 Torsion                  7     9    19    21          36.08941
  115 Torsion                  8     7     9    10        -136.20693
  116 Torsion                  8     7     9    11         -20.04683
  117 Torsion                  8     7     9    19         106.75690
  118 Torsion                  9    11    14    15         -95.54144
  119 Torsion                  9    11    14    16          81.57556
  120 Torsion                  9    19    21    22           2.44670
  121 Torsion                  9    19    21    23        -169.18051
  122 Torsion                 10     9    11    12         -63.78599
  123 Torsion                 10     9    11    13          54.39205
  124 Torsion                 10     9    11    14         174.18594
  125 Torsion                 10     9    19    20         100.30239
  126 Torsion                 10     9    19    21         -81.96808
  127 Torsion                 11     9    19    20         -17.38202
  128 Torsion                 11     9    19    21         160.34751
  129 Torsion                 11    14    16    17        -177.42439
  130 Torsion                 11    14    16    18          -6.34452
  131 Torsion                 12    11     9    19          52.80546
  132 Torsion                 12    11    14    15         141.99164
  133 Torsion                 12    11    14    16         -40.89135
  134 Torsion                 13    11     9    19         170.98350
  135 Torsion                 13    11    14    15          24.97080
  136 Torsion                 13    11    14    16        -157.91219
  137 Torsion                 14    11     9    19         -69.22260
  138 Torsion                 15    14    16    17          -0.27462
  139 Torsion                 15    14    16    18         170.80525
  140 Torsion                 19    21    23    24         -31.76955
  141 Torsion                 19    21    23    25          85.83897
  142 Torsion                 19    21    23    33        -149.92951
  143 Torsion                 20    19    21    22        -179.83989
  144 Torsion                 20    19    21    23           8.53289
  145 Torsion                 21    23    25    26        -175.09560
  146 Torsion                 21    23    25    27         -56.85110
  147 Torsion                 21    23    25    28          63.49493
  148 Torsion                 21    23    33    34        -162.25520
  149 Torsion                 21    23    33    35          14.55714
  150 Torsion                 22    21    23    24         156.70061
  151 Torsion                 22    21    23    25         -85.69087
  152 Torsion                 22    21    23    33          38.54065
  153 Torsion                 23    25    28    29         -92.68778
  154 Torsion                 23    25    28    30          84.75420
  155 Torsion                 23    33    35    36        -178.29318
  156 Torsion                 23    33    35    37          -0.04272
  157 Torsion                 24    23    25    26         -57.32930
  158 Torsion                 24    23    25    27          60.91521
  159 Torsion                 24    23    25    28        -178.73877
  160 Torsion                 24    23    33    34          78.39456
  161 Torsion                 24    23    33    35        -104.79309
  162 Torsion                 25    23    33    34         -40.16357
  163 Torsion                 25    23    33    35         136.64877
  164 Torsion                 25    28    30    31        -179.13963
  165 Torsion                 25    28    30    32          -4.89584
  166 Torsion                 26    25    23    33          60.15715
  167 Torsion                 26    25    28    29         145.59729
  168 Torsion                 26    25    28    30         -36.96073
  169 Torsion                 27    25    23    33         178.40166
  170 Torsion                 27    25    28    29          28.39689
  171 Torsion                 27    25    28    30        -154.16113
  172 Torsion                 28    25    23    33         -61.25232
  173 Torsion                 29    28    30    31          -1.64240
  174 Torsion                 29    28    30    32         172.60139
  175 Torsion                 34    33    35    36          -1.46326
  176 Torsion                 34    33    35    37         176.78720


            XYZ format geometry
            -------------------
    37
 geometry
 H                    -3.01246282     0.62098594     1.44507967
 C                    -3.39891946     0.81956325     0.44538506
 H                    -3.86383116     1.80288351     0.42033771
 H                    -4.12977681     0.05816149     0.17850512
 C                    -2.25576034     0.77731129    -0.53800296
 O                    -2.22950570    -0.07135198    -1.42435918
 N                    -1.28597348     1.67418249    -0.37202257
 H                    -1.37280210     2.31122929     0.41060196
 C                    -0.07782008     1.80125931    -1.20522234
 H                    -0.38882644     1.73965987    -2.24938399
 C                     0.52199594     3.20251510    -0.97682588
 H                     1.41904384     3.32828753    -1.58301756
 H                    -0.20010294     3.95693959    -1.28895071
 C                     0.86268573     3.45506125     0.48037723
 O                     0.08828007     4.03320503     1.22032564
 N                     1.99295383     2.98449950     0.94614398
 H                     2.17797169     3.12925660     1.92044361
 H                     2.55466082     2.38833794     0.35227307
 C                     0.95201893     0.65722760    -1.00151899
 O                     2.16283989     0.88503206    -1.00463694
 N                     0.47054758    -0.56477797    -0.77826858
 H                    -0.53865199    -0.65501742    -0.79781519
 C                     1.24124705    -1.73205462    -0.34393052
 H                     2.25085416    -1.65725028    -0.75118081
 C                     1.33053093    -1.70035824     1.19405899
 H                     1.97236949    -2.50996895     1.54064775
 H                     1.77633475    -0.75908788     1.51484405
 C                    -0.03319214    -1.83077102     1.85054729
 O                    -0.69820438    -0.85886175     2.15860588
 N                    -0.51075301    -3.03832119     2.03655860
 H                    -1.41814016    -3.10681465     2.45911418
 H                    -0.00330660    -3.83421469     1.67692035
 C                     0.65075964    -3.06546200    -0.86051194
 O                     0.96516004    -4.13118684    -0.34038699
 N                    -0.25213872    -3.04081551    -1.83477017
 H                    -0.64690690    -3.91421859    -2.14289051
 H                    -0.54871684    -2.16298419    -2.23154038

 ==============================================================================
                                internuclear distances
 ------------------------------------------------------------------------------
       center one      |      center two      | atomic units |  angstroms
 ------------------------------------------------------------------------------
    2 C                |   1 H                |     2.05986  |     1.09003
    3 H                |   2 C                |     2.05597  |     1.08797
    4 H                |   2 C                |     2.05721  |     1.08863
    5 C                |   2 C                |     2.85070  |     1.50853
    6 O                |   5 C                |     2.31948  |     1.22741
    7 N                |   5 C                |     2.51583  |     1.33132
    8 H                |   7 N                |     1.91401  |     1.01285
    9 C                |   7 N                |     2.78374  |     1.47309
   10 H                |   9 C                |     2.06213  |     1.09123
   11 C                |   9 C                |     2.91255  |     1.54125
   12 H                |  11 C                |     2.05970  |     1.08995
   13 H                |  11 C                |     2.05972  |     1.08996
   14 C                |  11 C                |     2.86796  |     1.51766
   15 O                |  14 C                |     2.30010  |     1.21716
   16 N                |  14 C                |     2.47538  |     1.30991
   17 H                |  16 N                |     1.89392  |     1.00222
   18 H                |  16 N                |     1.91190  |     1.01173
   19 C                |   9 C                |     2.93417  |     1.55270
   20 O                |  19 C                |     2.32827  |     1.23207
   21 N                |  19 C                |     2.51763  |     1.33227
   22 H                |  21 N                |     1.91508  |     1.01341
   23 C                |  21 N                |     2.76776  |     1.46464
   24 H                |  23 C                |     2.06210  |     1.09122
   25 C                |  23 C                |     2.91189  |     1.54090
   26 H                |  25 C                |     2.05932  |     1.08975
   27 H                |  25 C                |     2.05940  |     1.08979
   28 C                |  25 C                |     2.87072  |     1.51912
   29 O                |  28 C                |     2.30031  |     1.21727
   30 N                |  28 C                |     2.47896  |     1.31181
   31 H                |  30 N                |     1.89595  |     1.00329
   32 H                |  30 N                |     1.90880  |     1.01009
   33 C                |  23 C                |     2.92359  |     1.54710
   34 O                |  33 C                |     2.31840  |     1.22684
   35 N                |  33 C                |     2.51057  |     1.32854
   36 H                |  35 N                |     1.90254  |     1.00678
   37 H                |  35 N                |     1.90476  |     1.00795
 ------------------------------------------------------------------------------
                         number of included internuclear distances:         36
 ==============================================================================



 ==============================================================================
                                 internuclear angles
 ------------------------------------------------------------------------------
        center 1       |       center 2       |       center 3       |  degrees
 ------------------------------------------------------------------------------
    1 H                |   2 C                |   3 H                |   109.71
    1 H                |   2 C                |   4 H                |   109.60
    1 H                |   2 C                |   5 C                |   108.91
    3 H                |   2 C                |   4 H                |   109.85
    3 H                |   2 C                |   5 C                |   109.52
    4 H                |   2 C                |   5 C                |   109.23
    2 C                |   5 C                |   6 O                |   120.42
    2 C                |   5 C                |   7 N                |   116.86
    6 O                |   5 C                |   7 N                |   122.70
    5 C                |   7 N                |   8 H                |   117.23
    5 C                |   7 N                |   9 C                |   125.80
    8 H                |   7 N                |   9 C                |   116.94
    7 N                |   9 C                |  10 H                |   107.61
    7 N                |   9 C                |  11 C                |   108.29
    7 N                |   9 C                |  19 C                |   113.97
   10 H                |   9 C                |  11 C                |   107.70
   10 H                |   9 C                |  19 C                |   105.84
   11 C                |   9 C                |  19 C                |   113.10
    9 C                |  11 C                |  12 H                |   110.05
    9 C                |  11 C                |  13 H                |   109.21
    9 C                |  11 C                |  14 C                |   112.39
   12 H                |  11 C                |  13 H                |   107.83
   12 H                |  11 C                |  14 C                |   109.27
   13 H                |  11 C                |  14 C                |   107.97
   11 C                |  14 C                |  15 O                |   121.33
   11 C                |  14 C                |  16 N                |   118.38
   15 O                |  14 C                |  16 N                |   120.23
   14 C                |  16 N                |  17 H                |   116.94
   14 C                |  16 N                |  18 H                |   118.82
   17 H                |  16 N                |  18 H                |   123.59
    9 C                |  19 C                |  20 O                |   121.01
    9 C                |  19 C                |  21 N                |   117.27
   20 O                |  19 C                |  21 N                |   121.68
   19 C                |  21 N                |  22 H                |   116.00
   19 C                |  21 N                |  23 C                |   126.20
   22 H                |  21 N                |  23 C                |   117.31
   21 N                |  23 C                |  24 H                |   108.76
   21 N                |  23 C                |  25 C                |   108.06
   21 N                |  23 C                |  33 C                |   112.77
   24 H                |  23 C                |  25 C                |   108.51
   24 H                |  23 C                |  33 C                |   106.71
   25 C                |  23 C                |  33 C                |   111.91
   23 C                |  25 C                |  26 H                |   109.65
   23 C                |  25 C                |  27 H                |   109.59
   23 C                |  25 C                |  28 C                |   112.18
   26 H                |  25 C                |  27 H                |   107.89
   26 H                |  25 C                |  28 C                |   109.12
   27 H                |  25 C                |  28 C                |   108.31
   25 C                |  28 C                |  29 O                |   122.09
   25 C                |  28 C                |  30 N                |   117.85
   29 O                |  28 C                |  30 N                |   120.01
   28 C                |  30 N                |  31 H                |   116.86
   28 C                |  30 N                |  32 H                |   119.47
   31 H                |  30 N                |  32 H                |   123.40
   23 C                |  33 C                |  34 O                |   120.62
   23 C                |  33 C                |  35 N                |   119.23
   34 O                |  33 C                |  35 N                |   120.08
   33 C                |  35 N                |  36 H                |   118.35
   33 C                |  35 N                |  37 H                |   120.32
   36 H                |  35 N                |  37 H                |   121.31
 ------------------------------------------------------------------------------
                            number of included internuclear angles:         60
 ==============================================================================



  library name resolved from: environment
  library file name is: </opt/rit/el9/20230413/app/linux-rhel9-x86_64_v3/gcc-11.2.1/nwchem-7.2.0-oxtctbuhfuzyfaoziquq6bki22grib3g/share/nwchem/libraries/>
  


 Summary of "ao basis" -> "" (cartesian)
 ------------------------------------------------------------------------------
       Tag                 Description            Shells   Functions and Types
 ---------------- ------------------------------  ------  ---------------------
 *                        aug-cc-pvdz                 on all atoms 


                      Basis "ao basis" -> "ao basis" (cartesian)
                      -----
  H (Hydrogen)
  ------------
            Exponent  Coefficients 
       -------------- ---------------------------------------------------------
  1 S  1.30100000E+01  0.019685
  1 S  1.96200000E+00  0.137977
  1 S  4.44600000E-01  0.478148

  2 S  1.22000000E-01  1.000000

  3 S  2.97400000E-02  1.000000

  4 P  7.27000000E-01  1.000000

  5 P  1.41000000E-01  1.000000

  C (Carbon)
  ----------
            Exponent  Coefficients 
       -------------- ---------------------------------------------------------
  1 S  6.66500000E+03  0.000692
  1 S  1.00000000E+03  0.005329
  1 S  2.28000000E+02  0.027077
  1 S  6.47100000E+01  0.101718
  1 S  2.10600000E+01  0.274740
  1 S  7.49500000E+00  0.448564
  1 S  2.79700000E+00  0.285074
  1 S  5.21500000E-01  0.015204

  2 S  6.66500000E+03 -0.000146
  2 S  1.00000000E+03 -0.001154
  2 S  2.28000000E+02 -0.005725
  2 S  6.47100000E+01 -0.023312
  2 S  2.10600000E+01 -0.063955
  2 S  7.49500000E+00 -0.149981
  2 S  2.79700000E+00 -0.127262
  2 S  5.21500000E-01  0.544529

  3 S  1.59600000E-01  1.000000

  4 S  4.69000000E-02  1.000000

  5 P  9.43900000E+00  0.038109
  5 P  2.00200000E+00  0.209480
  5 P  5.45600000E-01  0.508557

  6 P  1.51700000E-01  1.000000

  7 P  4.04100000E-02  1.000000

  8 D  5.50000000E-01  1.000000

  9 D  1.51000000E-01  1.000000

  O (Oxygen)
  ----------
            Exponent  Coefficients 
       -------------- ---------------------------------------------------------
  1 S  1.17200000E+04  0.000710
  1 S  1.75900000E+03  0.005470
  1 S  4.00800000E+02  0.027837
  1 S  1.13700000E+02  0.104800
  1 S  3.70300000E+01  0.283062
  1 S  1.32700000E+01  0.448719
  1 S  5.02500000E+00  0.270952
  1 S  1.01300000E+00  0.015458

  2 S  1.17200000E+04 -0.000160
  2 S  1.75900000E+03 -0.001263
  2 S  4.00800000E+02 -0.006267
  2 S  1.13700000E+02 -0.025716
  2 S  3.70300000E+01 -0.070924
  2 S  1.32700000E+01 -0.165411
  2 S  5.02500000E+00 -0.116955
  2 S  1.01300000E+00  0.557368

  3 S  3.02300000E-01  1.000000

  4 S  7.89600000E-02  1.000000

  5 P  1.77000000E+01  0.043018
  5 P  3.85400000E+00  0.228913
  5 P  1.04600000E+00  0.508728

  6 P  2.75300000E-01  1.000000

  7 P  6.85600000E-02  1.000000

  8 D  1.18500000E+00  1.000000

  9 D  3.32000000E-01  1.000000

  N (Nitrogen)
  ------------
            Exponent  Coefficients 
       -------------- ---------------------------------------------------------
  1 S  9.04600000E+03  0.000700
  1 S  1.35700000E+03  0.005389
  1 S  3.09300000E+02  0.027406
  1 S  8.77300000E+01  0.103207
  1 S  2.85600000E+01  0.278723
  1 S  1.02100000E+01  0.448540
  1 S  3.83800000E+00  0.278238
  1 S  7.46600000E-01  0.015440

  2 S  9.04600000E+03 -0.000153
  2 S  1.35700000E+03 -0.001208
  2 S  3.09300000E+02 -0.005992
  2 S  8.77300000E+01 -0.024544
  2 S  2.85600000E+01 -0.067459
  2 S  1.02100000E+01 -0.158078
  2 S  3.83800000E+00 -0.121831
  2 S  7.46600000E-01  0.549003

  3 S  2.24800000E-01  1.000000

  4 S  6.12400000E-02  1.000000

  5 P  1.35500000E+01  0.039919
  5 P  2.91700000E+00  0.217169
  5 P  7.97300000E-01  0.510319

  6 P  2.18500000E-01  1.000000

  7 P  5.61100000E-02  1.000000

  8 D  8.17000000E-01  1.000000

  9 D  2.30000000E-01  1.000000



 Summary of "ao basis" -> "ao basis" (cartesian)
 ------------------------------------------------------------------------------
       Tag                 Description            Shells   Functions and Types
 ---------------- ------------------------------  ------  ---------------------
 H                        aug-cc-pvdz                5        9   3s2p
 C                        aug-cc-pvdz                9       25   4s3p2d
 O                        aug-cc-pvdz                9       25   4s3p2d
 N                        aug-cc-pvdz                9       25   4s3p2d


                                 NWChem SCF Module
                                 -----------------



  ao basis        = "ao basis"
  functions       =   653
  atoms           =    37
  closed shells   =    76
  open shells     =     0
  charge          =   0.00
  wavefunction    = RHF 
  input vectors   = atomic
  output vectors  = ./ASN_ASN_1.movecs
  use symmetry    = F
  symmetry adapt  = F


 Summary of "ao basis" -> "ao basis" (cartesian)
 ------------------------------------------------------------------------------
       Tag                 Description            Shells   Functions and Types
 ---------------- ------------------------------  ------  ---------------------
 H                        aug-cc-pvdz                5        9   3s2p
 C                        aug-cc-pvdz                9       25   4s3p2d
 O                        aug-cc-pvdz                9       25   4s3p2d
 N                        aug-cc-pvdz                9       25   4s3p2d



 Forming initial guess at       0.7s


 !! The overlap matrix has   4 vectors deemed linearly dependent with
    eigenvalues:
 2.87D-06 3.73D-06 7.61D-06 9.47D-06


      Superposition of Atomic Density Guess
      -------------------------------------

 Sum of atomic energies:       -1030.50653915

      Non-variational initial energy
      ------------------------------

 Total energy =   -1043.189047
 1-e energy   =   -4857.116132
 2-e energy   =    2077.281387
 HOMO         =      -0.307772
 LUMO         =       0.007952


 Starting SCF solution at     274.2s



 ----------------------------------------------
         Quadratically convergent ROHF

 Convergence threshold     :          1.000E-04
 Maximum no. of iterations :           30
 Final Fock-matrix accuracy:          1.000E-10
 ----------------------------------------------


              iter       energy          gnorm     gmax       time
             ----- ------------------- --------- --------- --------
                 1    -1034.8970783055  2.92D+00  1.43D-01    562.9
                 2    -1035.3360918864  9.18D-01  3.30D-02   1142.5
                 3    -1035.4099830509  7.54D-02  4.65D-03   1976.8
                 4    -1035.4108372023  4.78D-03  3.69D-04   3083.3
                 5    -1035.4108413195  1.01D-05  7.13D-07   5006.4


       Final RHF  results 
       ------------------ 

         Total SCF energy =  -1035.410841319512
      One-electron energy =  -4870.192225511728
      Two-electron energy =   2098.135685910820
 Nuclear repulsion energy =   1736.645698281396

        Time for solution =   4733.4s


             Final eigenvalues
             -----------------

              1      
    1  -20.5505
    2  -20.5454
    3  -20.5446
    4  -20.5258
    5  -20.5249
    6  -15.6134
    7  -15.6129
    8  -15.6091
    9  -15.5926
   10  -15.5869
   11  -11.3832
   12  -11.3826
   13  -11.3726
   14  -11.3567
   15  -11.3556
   16  -11.3253
   17  -11.3219
   18  -11.2664
   19  -11.2605
   20  -11.2435
   21   -1.4156
   22   -1.4085
   23   -1.4045
   24   -1.3958
   25   -1.3953
   26   -1.2716
   27   -1.2598
   28   -1.2341
   29   -1.2276
   30   -1.2247
   31   -1.0916
   32   -1.0693
   33   -1.0062
   34   -0.9619
   35   -0.9245
   36   -0.8366
   37   -0.8307
   38   -0.8153
   39   -0.7993
   40   -0.7936
   41   -0.7675
   42   -0.7484
   43   -0.7362
   44   -0.7287
   45   -0.7162
   46   -0.6942
   47   -0.6847
   48   -0.6761
   49   -0.6586
   50   -0.6536
   51   -0.6409
   52   -0.6272
   53   -0.6207
   54   -0.6105
   55   -0.6034
   56   -0.5948
   57   -0.5927
   58   -0.5880
   59   -0.5710
   60   -0.5622
   61   -0.5590
   62   -0.5508
   63   -0.5479
   64   -0.5363
   65   -0.5321
   66   -0.5253
   67   -0.4656
   68   -0.4554
   69   -0.4430
   70   -0.4339
   71   -0.4278
   72   -0.4254
   73   -0.4153
   74   -0.4125
   75   -0.4092
   76   -0.4042
   77    0.0288
   78    0.0362
   79    0.0383
   80    0.0405
   81    0.0495
   82    0.0520
   83    0.0566
   84    0.0591
   85    0.0659
   86    0.0719

                       ROHF Final Molecular Orbital Analysis
                       -------------------------------------

 Vector   21  Occ=2.000000D+00  E=-1.415644D+00
              MO Center=  1.2D-01,  1.3D-01, -8.8D-01, r^2= 5.9D+00
   Bfn.  Coefficient  Atom+Function         Bfn.  Coefficient  Atom+Function  
  ----- ------------  ---------------      ----- ------------  ---------------
   334      0.254091  20 O  s               333      0.238049  20 O  s         
    80      0.210395   6 O  s                79      0.203775   6 O  s         
   308      0.175109  19 C  s         

 Vector   22  Occ=2.000000D+00  E=-1.408473D+00
              MO Center= -2.5D-02, -2.6D+00, -6.7D-01, r^2= 5.9D+00
   Bfn.  Coefficient  Atom+Function         Bfn.  Coefficient  Atom+Function  
  ----- ------------  ---------------      ----- ------------  ---------------
   588      0.321908  34 O  s               587      0.296753  34 O  s         
   562      0.208795  33 C  s                80     -0.185964   6 O  s         
    79     -0.180688   6 O  s         

 Vector   23  Occ=2.000000D+00  E=-1.404480D+00
              MO Center=  9.7D-02, -3.5D-02, -9.4D-01, r^2= 6.6D+00
   Bfn.  Coefficient  Atom+Function         Bfn.  Coefficient  Atom+Function  
  ----- ------------  ---------------      ----- ------------  ---------------
   334      0.277559  20 O  s               333      0.251169  20 O  s         
    80     -0.227836   6 O  s                79     -0.223759   6 O  s         
   308      0.162588  19 C  s         

 Vector   24  Occ=2.000000D+00  E=-1.395798D+00
              MO Center= -2.6D-01, -5.6D-01,  1.8D+00, r^2= 5.6D+00
   Bfn.  Coefficient  Atom+Function         Bfn.  Coefficient  Atom+Function  
  ----- ------------  ---------------      ----- ------------  ---------------
   495      0.332573  29 O  s               494      0.310696  29 O  s         
   469      0.221420  28 C  s               241     -0.159013  15 O  s         

 Vector   25  Occ=2.000000D+00  E=-1.395337D+00
              MO Center=  3.7D-01,  2.7D+00,  1.1D+00, r^2= 5.4D+00
   Bfn.  Coefficient  Atom+Function         Bfn.  Coefficient  Atom+Function  
  ----- ------------  ---------------      ----- ------------  ---------------
   241      0.330977  15 O  s               240      0.311826  15 O  s         
   215      0.221933  14 C  s               495      0.157897  29 O  s         

 Vector   26  Occ=2.000000D+00  E=-1.271558D+00
              MO Center=  2.3D-01, -2.1D-01, -7.8D-01, r^2= 4.0D+00
   Bfn.  Coefficient  Atom+Function         Bfn.  Coefficient  Atom+Function  
  ----- ------------  ---------------      ----- ------------  ---------------
   359      0.328079  21 N  s               358      0.272157  21 N  s         
   334     -0.203295  20 O  s               393     -0.173072  23 C  s         
   105      0.166786   7 N  s               333     -0.164216  20 O  s         
   104      0.161199   7 N  s         

 Vector   27  Occ=2.000000D+00  E=-1.259831D+00
              MO Center= -8.3D-01,  6.5D-01, -6.4D-01, r^2= 4.5D+00
   Bfn.  Coefficient  Atom+Function         Bfn.  Coefficient  Atom+Function  
  ----- ------------  ---------------      ----- ------------  ---------------
   105      0.375714   7 N  s               104      0.299948   7 N  s         
    80     -0.181059   6 O  s               359     -0.158554  21 N  s         
   358     -0.150245  21 N  s         

 Vector   28  Occ=2.000000D+00  E=-1.234147D+00
              MO Center=  4.2D-02, -2.5D+00, -1.0D+00, r^2= 4.2D+00
   Bfn.  Coefficient  Atom+Function         Bfn.  Coefficient  Atom+Function  
  ----- ------------  ---------------      ----- ------------  ---------------
   613      0.359631  35 N  s               612      0.328632  35 N  s         
   359     -0.179499  21 N  s               393     -0.179208  23 C  s         
   588     -0.166065  34 O  s         

 Vector   29  Occ=2.000000D+00  E=-1.227614D+00
              MO Center= -3.2D-01, -2.4D+00,  1.7D+00, r^2= 3.4D+00
   Bfn.  Coefficient  Atom+Function         Bfn.  Coefficient  Atom+Function  
  ----- ------------  ---------------      ----- ------------  ---------------
   519      0.344432  30 N  s               520      0.338599  30 N  s         
   495     -0.212664  29 O  s               473     -0.210778  28 C  py        
   494     -0.178777  29 O  s               552      0.152972  32 H  s         

 Vector   30  Occ=2.000000D+00  E=-1.224690D+00
              MO Center=  1.5D+00,  2.9D+00,  8.2D-01, r^2= 2.7D+00
   Bfn.  Coefficient  Atom+Function         Bfn.  Coefficient  Atom+Function  
  ----- ------------  ---------------      ----- ------------  ---------------
   265      0.357546  16 N  s               266      0.329349  16 N  s         
   241     -0.215329  15 O  s               218      0.192832  14 C  px        
   240     -0.184421  15 O  s               298      0.156920  18 H  s         
   289      0.151398  17 H  s         

 Vector   31  Occ=2.000000D+00  E=-1.091631D+00
              MO Center=  9.6D-02,  8.4D-01, -4.7D-01, r^2= 6.7D+00
   Bfn.  Coefficient  Atom+Function         Bfn.  Coefficient  Atom+Function  
  ----- ------------  ---------------      ----- ------------  ---------------
   138      0.201044   9 C  s               172      0.180748  11 C  s         
   427     -0.161165  25 C  s               392     -0.151881  23 C  s         

 Vector   32  Occ=2.000000D+00  E=-1.069296D+00
              MO Center=  6.3D-01, -1.9D-01,  4.5D-03, r^2= 7.4D+00
   Bfn.  Coefficient  Atom+Function         Bfn.  Coefficient  Atom+Function  
  ----- ------------  ---------------      ----- ------------  ---------------
   427      0.246653  25 C  s               426      0.218321  25 C  s         
   392      0.184464  23 C  s               172      0.171849  11 C  s         
   145      0.159308   9 C  py              173      0.159929  11 C  s         

 Vector   33  Occ=2.000000D+00  E=-1.006243D+00
              MO Center= -2.3D+00,  1.3D+00,  6.3D-02, r^2= 4.9D+00
   Bfn.  Coefficient  Atom+Function         Bfn.  Coefficient  Atom+Function  
  ----- ------------  ---------------      ----- ------------  ---------------
    11      0.318693   2 C  s               173      0.313589  11 C  s         
    55      0.169264   5 C  s               172      0.157416  11 C  s         

 Vector   34  Occ=2.000000D+00  E=-9.618875D-01
              MO Center=  5.3D-01, -7.3D-01,  1.7D-01, r^2= 7.2D+00
   Bfn.  Coefficient  Atom+Function         Bfn.  Coefficient  Atom+Function  
  ----- ------------  ---------------      ----- ------------  ---------------
   427      0.244054  25 C  s               426      0.212070  25 C  s         
   434      0.179123  25 C  pz              139      0.174165   9 C  s         
   400      0.158023  23 C  pz        

 Vector   35  Occ=2.000000D+00  E=-9.244673D-01
              MO Center=  1.9D-01,  7.2D-01, -4.7D-01, r^2= 8.8D+00
   Bfn.  Coefficient  Atom+Function         Bfn.  Coefficient  Atom+Function  
  ----- ------------  ---------------      ----- ------------  ---------------
   173      0.268435  11 C  s               138     -0.201257   9 C  s         

 Vector   36  Occ=2.000000D+00  E=-8.365947D-01
              MO Center= -1.0D-01, -1.1D+00, -6.3D-01, r^2= 9.0D+00
   Bfn.  Coefficient  Atom+Function         Bfn.  Coefficient  Atom+Function  
  ----- ------------  ---------------      ----- ------------  ---------------
   399     -0.247307  23 C  py              393      0.245591  23 C  s         
   139      0.228222   9 C  s               562      0.195751  33 C  s         
   617      0.173393  35 N  pz              615      0.166894  35 N  px        

 Vector   37  Occ=2.000000D+00  E=-8.306752D-01
              MO Center=  2.7D-01, -8.2D-01, -1.8D-02, r^2= 6.9D+00
   Bfn.  Coefficient  Atom+Function         Bfn.  Coefficient  Atom+Function  
  ----- ------------  ---------------      ----- ------------  ---------------
   359     -0.219181  21 N  s               309      0.207546  19 C  s         
   382     -0.202315  22 H  s               361      0.192147  21 N  px        
   412      0.151851  23 C  dxz       

 Vector   38  Occ=2.000000D+00  E=-8.153012D-01
              MO Center= -6.3D-01,  1.0D+00, -5.5D-01, r^2= 6.2D+00
   Bfn.  Coefficient  Atom+Function         Bfn.  Coefficient  Atom+Function  
  ----- ------------  ---------------      ----- ------------  ---------------
   128      0.219872   8 H  s               108      0.214347   7 N  py        
   105      0.190577   7 N  s               139     -0.178196   9 C  s         
    54     -0.162234   5 C  s                60     -0.159167   5 C  px        
    80      0.157763   6 O  s               145     -0.154795   9 C  py        

 Vector   39  Occ=2.000000D+00  E=-7.993144D-01
              MO Center=  9.8D-01,  1.8D+00,  7.2D-02, r^2= 8.2D+00
   Bfn.  Coefficient  Atom+Function         Bfn.  Coefficient  Atom+Function  
  ----- ------------  ---------------      ----- ------------  ---------------
   309      0.248043  19 C  s               268      0.245601  16 N  px        
   215     -0.192257  14 C  s               289      0.176811  17 H  s         
   139     -0.152959   9 C  s         

 Vector   40  Occ=2.000000D+00  E=-7.935868D-01
              MO Center=  1.0D-02, -2.2D+00,  9.1D-01, r^2= 5.7D+00
   Bfn.  Coefficient  Atom+Function         Bfn.  Coefficient  Atom+Function  
  ----- ------------  ---------------      ----- ------------  ---------------
   523      0.298441  30 N  py              552     -0.184868  32 H  s         
   469      0.176170  28 C  s               563     -0.163367  33 C  s         
   470      0.158302  28 C  s         

 Vector   41  Occ=2.000000D+00  E=-7.675199D-01
              MO Center=  2.0D-01, -9.8D-01, -8.5D-01, r^2= 8.6D+00
   Bfn.  Coefficient  Atom+Function         Bfn.  Coefficient  Atom+Function  
  ----- ------------  ---------------      ----- ------------  ---------------
   616      0.245816  35 N  py              645      0.235933  37 H  s         
   399     -0.199687  23 C  py              145     -0.176570   9 C  py        
   396     -0.154583  23 C  py              564      0.153072  33 C  s         

 Vector   42  Occ=2.000000D+00  E=-7.483578D-01
              MO Center=  7.9D-01,  5.0D-01,  4.6D-01, r^2= 1.2D+01
   Bfn.  Coefficient  Atom+Function         Bfn.  Coefficient  Atom+Function  
  ----- ------------  ---------------      ----- ------------  ---------------
   298     -0.220773  18 H  s               270      0.206866  16 N  pz        
   552      0.170859  32 H  s               309      0.166485  19 C  s         
   289      0.162416  17 H  s         

 Vector   43  Occ=2.000000D+00  E=-7.361800D-01
              MO Center=  1.5D-01, -1.4D+00,  1.2D+00, r^2= 9.9D+00
   Bfn.  Coefficient  Atom+Function         Bfn.  Coefficient  Atom+Function  
  ----- ------------  ---------------      ----- ------------  ---------------
   522      0.256866  30 N  px              552      0.241962  32 H  s         
   543     -0.237589  31 H  s               427     -0.194837  25 C  s         
   524     -0.154701  30 N  pz              544     -0.155234  31 H  s         
   270     -0.153247  16 N  pz        

 Vector   44  Occ=2.000000D+00  E=-7.286657D-01
              MO Center=  3.9D-02,  6.6D-01, -5.6D-01, r^2= 8.3D+00
   Bfn.  Coefficient  Atom+Function         Bfn.  Coefficient  Atom+Function  
  ----- ------------  ---------------      ----- ------------  ---------------
   144      0.283171   9 C  px              309     -0.243269  19 C  s         
   109      0.208438   7 N  pz              141      0.203068   9 C  px        
   312      0.190711  19 C  py              616     -0.177007  35 N  py        
    55     -0.174113   5 C  s               128      0.157847   8 H  s         
   139      0.156365   9 C  s         

 Vector   45  Occ=2.000000D+00  E=-7.161960D-01
              MO Center=  1.6D-01, -1.2D+00, -5.1D-01, r^2= 9.2D+00
   Bfn.  Coefficient  Atom+Function         Bfn.  Coefficient  Atom+Function  
  ----- ------------  ---------------      ----- ------------  ---------------
   399      0.230333  23 C  py              616      0.195700  35 N  py        
   636     -0.192631  36 H  s               396      0.157111  23 C  py        
   591     -0.153920  34 O  py              360      0.152532  21 N  s         

 Vector   46  Occ=2.000000D+00  E=-6.941929D-01
              MO Center= -8.3D-01,  1.1D+00, -5.9D-01, r^2= 7.5D+00
   Bfn.  Coefficient  Atom+Function         Bfn.  Coefficient  Atom+Function  
  ----- ------------  ---------------      ----- ------------  ---------------
    84     -0.234347   6 O  pz               80      0.219392   6 O  s         
    58      0.171534   5 C  py              143     -0.168096   9 C  pz        
   107     -0.151741   7 N  px        

 Vector   47  Occ=2.000000D+00  E=-6.847315D-01
              MO Center= -4.4D-01,  6.9D-01, -1.9D-01, r^2= 8.7D+00
   Bfn.  Coefficient  Atom+Function         Bfn.  Coefficient  Atom+Function  
  ----- ------------  ---------------      ----- ------------  ---------------
   336     -0.181253  20 O  px               57      0.178264   5 C  px        
    55      0.163171   5 C  s               334     -0.162216  20 O  s         
    17     -0.150896   2 C  px        

 Vector   48  Occ=2.000000D+00  E=-6.760521D-01
              MO Center=  2.9D-01, -1.7D+00,  5.2D-01, r^2= 7.7D+00
   Bfn.  Coefficient  Atom+Function         Bfn.  Coefficient  Atom+Function  
  ----- ------------  ---------------      ----- ------------  ---------------
   591      0.205714  34 O  py              473      0.192352  28 C  py        
   567      0.177505  33 C  pz              588     -0.164595  34 O  s         
   429     -0.155531  25 C  px              497      0.155339  29 O  px        
   522     -0.153566  30 N  px        

 Vector   49  Occ=2.000000D+00  E=-6.585861D-01
              MO Center=  2.5D-01,  1.2D+00,  2.7D-01, r^2= 9.8D+00
   Bfn.  Coefficient  Atom+Function         Bfn.  Coefficient  Atom+Function  
  ----- ------------  ---------------      ----- ------------  ---------------
   245      0.223474  15 O  pz              218      0.193603  14 C  px        
   241      0.177323  15 O  s         

 Vector   50  Occ=2.000000D+00  E=-6.535579D-01
              MO Center=  3.1D-01,  1.2D-01,  1.9D-01, r^2= 9.4D+00
   Bfn.  Coefficient  Atom+Function         Bfn.  Coefficient  Atom+Function  
  ----- ------------  ---------------      ----- ------------  ---------------
   360      0.193263  21 N  s               497     -0.188750  29 O  px        
   417     -0.164373  24 H  s               336     -0.161624  20 O  px        
   473     -0.157656  28 C  py              310     -0.155478  19 C  s         
   416     -0.150441  24 H  s         

 Vector   51  Occ=2.000000D+00  E=-6.408581D-01
              MO Center=  6.7D-01, -3.6D-01, -1.7D-01, r^2= 7.7D+00
   Bfn.  Coefficient  Atom+Function         Bfn.  Coefficient  Atom+Function  
  ----- ------------  ---------------      ----- ------------  ---------------
   427      0.326015  25 C  s               336     -0.276502  20 O  px        
   311      0.216061  19 C  px              393     -0.180281  23 C  s         
   334     -0.178306  20 O  s               431      0.164399  25 C  pz        
   460     -0.160186  27 H  s               397     -0.159153  23 C  pz        
   470     -0.155581  28 C  s         

 Vector   52  Occ=2.000000D+00  E=-6.272193D-01
              MO Center=  4.5D-01, -1.6D+00, -2.7D-01, r^2= 1.1D+01
   Bfn.  Coefficient  Atom+Function         Bfn.  Coefficient  Atom+Function  
  ----- ------------  ---------------      ----- ------------  ---------------
   591      0.279434  34 O  py              566     -0.220008  33 C  py        
   588     -0.202790  34 O  s               592     -0.184760  34 O  pz        
   460      0.180426  27 H  s         

 Vector   53  Occ=2.000000D+00  E=-6.207476D-01
              MO Center= -1.8D+00,  1.0D+00, -1.7D-01, r^2= 6.2D+00
   Bfn.  Coefficient  Atom+Function         Bfn.  Coefficient  Atom+Function  
  ----- ------------  ---------------      ----- ------------  ---------------
   139     -0.220106   9 C  s                35      0.212486   3 H  s         
    15      0.188326   2 C  py              173      0.188269  11 C  s         
     1     -0.168960   1 H  s               179     -0.165223  11 C  py        
    59     -0.161465   5 C  pz               83      0.158034   6 O  py        
    14     -0.157205   2 C  px              217     -0.153270  14 C  s         

 Vector   54  Occ=2.000000D+00  E=-6.104615D-01
              MO Center=  3.2D-01,  1.2D+00, -1.1D-01, r^2= 1.1D+01
   Bfn.  Coefficient  Atom+Function         Bfn.  Coefficient  Atom+Function  
  ----- ------------  ---------------      ----- ------------  ---------------
   219     -0.192134  14 C  py              142      0.182057   9 C  py        
   175     -0.152512  11 C  px        

 Vector   55  Occ=2.000000D+00  E=-6.033986D-01
              MO Center=  4.2D-01, -7.2D-01,  3.2D-01, r^2= 7.7D+00
   Bfn.  Coefficient  Atom+Function         Bfn.  Coefficient  Atom+Function  
  ----- ------------  ---------------      ----- ------------  ---------------
   427      0.257008  25 C  s               361      0.189593  21 N  px        
   498      0.188049  29 O  py              472      0.186696  28 C  px        
   336      0.181049  20 O  px              395     -0.180126  23 C  px        
   383     -0.167332  22 H  s               174      0.165786  11 C  s         
   382     -0.161837  22 H  s               139      0.152864   9 C  s         

 Vector   56  Occ=2.000000D+00  E=-5.948365D-01
              MO Center= -1.1D+00,  2.6D-01, -5.1D-01, r^2= 7.8D+00
   Bfn.  Coefficient  Atom+Function         Bfn.  Coefficient  Atom+Function  
  ----- ------------  ---------------      ----- ------------  ---------------
    83      0.236027   6 O  py               59     -0.209589   5 C  pz        
    84      0.156727   6 O  pz               16      0.150284   2 C  pz        

 Vector   57  Occ=2.000000D+00  E=-5.927355D-01
              MO Center=  4.5D-02, -9.9D-01,  6.2D-02, r^2= 1.1D+01
   Bfn.  Coefficient  Atom+Function         Bfn.  Coefficient  Atom+Function  
  ----- ------------  ---------------      ----- ------------  ---------------
   498     -0.196611  29 O  py              139      0.181734   9 C  s         
   427      0.181019  25 C  s               590     -0.175584  34 O  px        

 Vector   58  Occ=2.000000D+00  E=-5.880463D-01
              MO Center=  3.9D-01,  1.4D+00,  5.7D-01, r^2= 1.0D+01
   Bfn.  Coefficient  Atom+Function         Bfn.  Coefficient  Atom+Function  
  ----- ------------  ---------------      ----- ------------  ---------------
   243      0.257092  15 O  px              220      0.233869  14 C  pz        
   177     -0.181342  11 C  pz              241     -0.173152  15 O  s         

 Vector   59  Occ=2.000000D+00  E=-5.710405D-01
              MO Center= -1.5D+00,  9.2D-01,  2.7D-01, r^2= 9.9D+00
   Bfn.  Coefficient  Atom+Function         Bfn.  Coefficient  Atom+Function  
  ----- ------------  ---------------      ----- ------------  ---------------
    45      0.279915   4 H  s                44      0.254142   4 H  s         
    15     -0.220131   2 C  py        

 Vector   60  Occ=2.000000D+00  E=-5.622360D-01
              MO Center= -5.6D-01,  4.8D-01,  4.8D-01, r^2= 1.2D+01
   Bfn.  Coefficient  Atom+Function         Bfn.  Coefficient  Atom+Function  
  ----- ------------  ---------------      ----- ------------  ---------------
   460      0.218032  27 H  s                44      0.204786   4 H  s         
    45      0.198434   4 H  s               217     -0.175143  14 C  s         
   430      0.170336  25 C  py              451     -0.168353  26 H  s         
    13     -0.164894   2 C  s               450     -0.162564  26 H  s         
    15     -0.161085   2 C  py              205      0.158071  13 H  s         

 Vector   61  Occ=2.000000D+00  E=-5.589648D-01
              MO Center= -8.0D-02, -3.2D-01, -6.7D-02, r^2= 1.1D+01
   Bfn.  Coefficient  Atom+Function         Bfn.  Coefficient  Atom+Function  
  ----- ------------  ---------------      ----- ------------  ---------------
   173      0.202903  11 C  s               590     -0.188124  34 O  px        
   416      0.157390  24 H  s               498      0.157788  29 O  py        
   417      0.151835  24 H  s         

 Vector   62  Occ=2.000000D+00  E=-5.507720D-01
              MO Center=  8.5D-01, -1.3D+00,  7.6D-01, r^2= 6.4D+00
   Bfn.  Coefficient  Atom+Function         Bfn.  Coefficient  Atom+Function  
  ----- ------------  ---------------      ----- ------------  ---------------
   459      0.309141  27 H  s               430      0.305298  25 C  py        
   460      0.291329  27 H  s               427      0.212622  25 C  s         
   400     -0.187453  23 C  pz              451     -0.179732  26 H  s         

 Vector   63  Occ=2.000000D+00  E=-5.479083D-01
              MO Center=  4.7D-01,  7.5D-01, -3.1D-01, r^2= 9.1D+00
   Bfn.  Coefficient  Atom+Function         Bfn.  Coefficient  Atom+Function  
  ----- ------------  ---------------      ----- ------------  ---------------
   427      0.314385  25 C  s               173      0.299213  11 C  s         
   205      0.232496  13 H  s               175     -0.187687  11 C  px        
   145     -0.167283   9 C  py              337      0.157743  20 O  py        
   400     -0.152510  23 C  pz        

 Vector   64  Occ=2.000000D+00  E=-5.363158D-01
              MO Center= -1.6D-01,  1.2D+00, -4.1D-02, r^2= 9.8D+00
   Bfn.  Coefficient  Atom+Function         Bfn.  Coefficient  Atom+Function  
  ----- ------------  ---------------      ----- ------------  ---------------
   244      0.170614  15 O  py        

 Vector   65  Occ=2.000000D+00  E=-5.320608D-01
              MO Center= -1.6D+00,  9.0D-01, -1.5D-01, r^2= 7.1D+00
   Bfn.  Coefficient  Atom+Function         Bfn.  Coefficient  Atom+Function  
  ----- ------------  ---------------      ----- ------------  ---------------
     1      0.222082   1 H  s                14      0.194834   2 C  px        
   139     -0.171202   9 C  s               173      0.170302  11 C  s         
   109     -0.168528   7 N  pz               36     -0.162726   3 H  s         
    16      0.160027   2 C  pz               35     -0.155963   3 H  s         
    82     -0.154782   6 O  px        

 Vector   66  Occ=2.000000D+00  E=-5.253271D-01
              MO Center=  8.4D-01,  4.0D-01, -1.7D-01, r^2= 7.8D+00
   Bfn.  Coefficient  Atom+Function         Bfn.  Coefficient  Atom+Function  
  ----- ------------  ---------------      ----- ------------  ---------------
   338      0.254272  20 O  pz              341      0.197428  20 O  pz        
   179      0.195398  11 C  py              397     -0.187033  23 C  pz        
   431      0.174404  25 C  pz              142     -0.155972   9 C  py        
   176      0.155686  11 C  py              162      0.152107  10 H  s         

 Vector   67  Occ=2.000000D+00  E=-4.655937D-01
              MO Center=  5.5D-01,  5.6D-01, -9.3D-01, r^2= 5.8D+00
   Bfn.  Coefficient  Atom+Function         Bfn.  Coefficient  Atom+Function  
  ----- ------------  ---------------      ----- ------------  ---------------
   337      0.442742  20 O  py              340      0.356772  20 O  py        
   139     -0.250814   9 C  s                83     -0.193038   6 O  py        
    84      0.184549   6 O  pz              140      0.163998   9 C  s         
   144     -0.160987   9 C  px              417      0.161203  24 H  s         
    86     -0.151326   6 O  py              309      0.151490  19 C  s         

 Vector   68  Occ=2.000000D+00  E=-4.554105D-01
              MO Center=  6.3D-01, -2.3D+00, -3.0D-01, r^2= 6.6D+00
   Bfn.  Coefficient  Atom+Function         Bfn.  Coefficient  Atom+Function  
  ----- ------------  ---------------      ----- ------------  ---------------
   592      0.273324  34 O  pz              590      0.263023  34 O  px        
   591      0.226941  34 O  py              595      0.219730  34 O  pz        
   593      0.205572  34 O  px              563     -0.178407  33 C  s         
   363      0.177366  21 N  pz              594      0.176553  34 O  py        
   338     -0.165194  20 O  pz        

 Vector   69  Occ=2.000000D+00  E=-4.430397D-01
              MO Center= -1.9D+00, -4.7D-02, -9.0D-01, r^2= 4.7D+00
   Bfn.  Coefficient  Atom+Function         Bfn.  Coefficient  Atom+Function  
  ----- ------------  ---------------      ----- ------------  ---------------
    82      0.447779   6 O  px               85      0.371646   6 O  px        
   105     -0.191960   7 N  s                84     -0.178861   6 O  pz        
    16     -0.170118   2 C  pz               19     -0.161886   2 C  pz        
    13     -0.161046   2 C  s         

 Vector   70  Occ=2.000000D+00  E=-4.339183D-01
              MO Center=  1.2D-01, -3.0D+00, -7.9D-01, r^2= 4.8D+00
   Bfn.  Coefficient  Atom+Function         Bfn.  Coefficient  Atom+Function  
  ----- ------------  ---------------      ----- ------------  ---------------
   615      0.307422  35 N  px              592      0.279696  34 O  pz        
   384      0.256220  22 H  s               617     -0.251016  35 N  pz        
   620     -0.248872  35 N  pz              618      0.236679  35 N  px        
   595      0.227674  34 O  pz              590     -0.211138  34 O  px        
   593     -0.166683  34 O  px        

 Vector   71  Occ=2.000000D+00  E=-4.277612D-01
              MO Center=  3.1D-01,  1.7D+00,  4.9D-01, r^2= 1.1D+01
   Bfn.  Coefficient  Atom+Function         Bfn.  Coefficient  Atom+Function  
  ----- ------------  ---------------      ----- ------------  ---------------
   245      0.322140  15 O  pz              243      0.286750  15 O  px        
   248      0.248716  15 O  pz              246      0.231420  15 O  px        
   590      0.175162  34 O  px              217      0.171226  14 C  s         
   177      0.162725  11 C  pz              173     -0.159351  11 C  s         

 Vector   72  Occ=2.000000D+00  E=-4.254028D-01
              MO Center= -3.3D-02, -1.1D-01,  1.3D+00, r^2= 9.0D+00
   Bfn.  Coefficient  Atom+Function         Bfn.  Coefficient  Atom+Function  
  ----- ------------  ---------------      ----- ------------  ---------------
   497      0.320089  29 O  px              500      0.247302  29 O  px        
   498      0.236454  29 O  py              245      0.214314  15 O  pz        
   470     -0.196918  28 C  s               501      0.195038  29 O  py        
   243      0.181043  15 O  px              488     -0.169266  28 C  dxy       
   429      0.166907  25 C  px              248      0.165205  15 O  pz        

 Vector   73  Occ=2.000000D+00  E=-4.152670D-01
              MO Center=  2.2D-01, -3.3D-01,  1.1D+00, r^2= 9.9D+00
   Bfn.  Coefficient  Atom+Function         Bfn.  Coefficient  Atom+Function  
  ----- ------------  ---------------      ----- ------------  ---------------
   524     -0.248237  30 N  pz              497      0.231090  29 O  px        
   527     -0.220812  30 N  pz              384     -0.197384  22 H  s         
   499      0.185378  29 O  pz              500      0.181867  29 O  px        
   363     -0.174847  21 N  pz              244      0.167693  15 O  py        
   366     -0.166044  21 N  pz              245     -0.159807  15 O  pz        

 Vector   74  Occ=2.000000D+00  E=-4.124620D-01
              MO Center=  3.6D-01,  7.8D-01,  1.3D+00, r^2= 1.1D+01
   Bfn.  Coefficient  Atom+Function         Bfn.  Coefficient  Atom+Function  
  ----- ------------  ---------------      ----- ------------  ---------------
   524      0.265891  30 N  pz              244      0.256543  15 O  py        
   527      0.238653  30 N  pz              269     -0.237418  16 N  py        
   499     -0.236179  29 O  pz              247      0.203760  15 O  py        
   272     -0.199432  16 N  py              267     -0.196675  16 N  s         
   502     -0.190799  29 O  pz              268     -0.179668  16 N  px        

 Vector   75  Occ=2.000000D+00  E=-4.092129D-01
              MO Center= -5.9D-01,  9.2D-01, -6.3D-01, r^2= 5.2D+00
   Bfn.  Coefficient  Atom+Function         Bfn.  Coefficient  Atom+Function  
  ----- ------------  ---------------      ----- ------------  ---------------
   108      0.248227   7 N  py              109     -0.231507   7 N  pz        
   111      0.230620   7 N  py              337     -0.229655  20 O  py        
   112     -0.207031   7 N  pz              107     -0.189765   7 N  px        
   340     -0.190105  20 O  py              110     -0.168474   7 N  px        
   145     -0.160650   9 C  py               84      0.159711   6 O  pz        

 Vector   76  Occ=2.000000D+00  E=-4.042080D-01
              MO Center=  8.6D-01,  5.2D-01,  8.0D-02, r^2= 8.0D+00
   Bfn.  Coefficient  Atom+Function         Bfn.  Coefficient  Atom+Function  
  ----- ------------  ---------------      ----- ------------  ---------------
   360      0.326298  21 N  s               363     -0.327152  21 N  pz        
   366     -0.314332  21 N  pz              338      0.257203  20 O  pz        
   140     -0.251012   9 C  s               269      0.223974  16 N  py        
   341      0.212210  20 O  pz              310     -0.206311  19 C  s         
   272      0.186610  16 N  py              434     -0.176063  25 C  pz        

 Vector   77  Occ=0.000000D+00  E= 2.884773D-02
              MO Center= -1.3D+00, -1.3D+00, -1.9D+00, r^2= 3.4D+01
   Bfn.  Coefficient  Atom+Function         Bfn.  Coefficient  Atom+Function  
  ----- ------------  ---------------      ----- ------------  ---------------
   384      8.637734  22 H  s               164     -2.782276  10 H  s         
   471      2.684989  28 C  s               521     -1.966212  30 N  s         
   149     -1.904378   9 C  pz              647     -1.858774  37 H  s         
    63     -1.707878   5 C  px              318      1.662880  19 C  py        
   360      1.541352  21 N  s               174     -1.487403  11 C  s         

 Vector   78  Occ=0.000000D+00  E= 3.619275D-02
              MO Center= -8.9D-01, -3.4D-02, -1.1D+00, r^2= 4.1D+01
   Bfn.  Coefficient  Atom+Function         Bfn.  Coefficient  Atom+Function  
  ----- ------------  ---------------      ----- ------------  ---------------
   384      4.895573  22 H  s               148      3.036351   9 C  py        
   140     -2.860775   9 C  s               164     -2.826886  10 H  s         
    63      2.640418   5 C  px              402      2.556322  23 C  py        
   310     -2.513372  19 C  s               360      2.424797  21 N  s         
   149     -2.301970   9 C  pz              478      2.293117  28 C  px        

 Vector   79  Occ=0.000000D+00  E= 3.829913D-02
              MO Center=  2.5D+00, -9.7D-02,  1.5D+00, r^2= 3.0D+01
   Bfn.  Coefficient  Atom+Function         Bfn.  Coefficient  Atom+Function  
  ----- ------------  ---------------      ----- ------------  ---------------
   318      3.462707  19 C  py              267      3.411746  16 N  s         
   452      2.935769  26 H  s               147     -2.915960   9 C  px        
   319     -2.123841  19 C  pz              471     -2.081788  28 C  s         
   614     -2.035368  35 N  s               217     -1.946022  14 C  s         
   564      1.930813  33 C  s               317     -1.818659  19 C  px        

 Vector   80  Occ=0.000000D+00  E= 4.045747D-02
              MO Center= -2.5D+00, -7.2D-01, -8.1D-01, r^2= 3.7D+01
   Bfn.  Coefficient  Atom+Function         Bfn.  Coefficient  Atom+Function  
  ----- ------------  ---------------      ----- ------------  ---------------
   318      4.101197  19 C  py               63     -3.537389   5 C  px        
   402      2.655930  23 C  py              147     -2.609009   9 C  px        
    37     -2.199172   3 H  s               207     -2.128129  13 H  s         
   521     -2.129428  30 N  s               428      1.974588  25 C  s         
    56     -1.937534   5 C  s               130      1.916616   8 H  s         

 Vector   81  Occ=0.000000D+00  E= 4.949712D-02
              MO Center= -1.6D+00, -2.3D-01,  3.7D-01, r^2= 4.4D+01
   Bfn.  Coefficient  Atom+Function         Bfn.  Coefficient  Atom+Function  
  ----- ------------  ---------------      ----- ------------  ---------------
   384     -3.660218  22 H  s               428      3.586056  25 C  s         
    63      3.495560   5 C  px              521     -3.120478  30 N  s         
   310     -2.787544  19 C  s               140     -2.680706   9 C  s         
   198     -2.558974  12 H  s               148      2.445026   9 C  py        
   318      2.450011  19 C  py              471      2.368826  28 C  s         

 Vector   82  Occ=0.000000D+00  E= 5.197604D-02
              MO Center=  2.4D+00,  1.9D-01,  8.1D-01, r^2= 3.9D+01
   Bfn.  Coefficient  Atom+Function         Bfn.  Coefficient  Atom+Function  
  ----- ------------  ---------------      ----- ------------  ---------------
   384      5.471158  22 H  s               174     -4.220339  11 C  s         
   428     -3.591637  25 C  s               452     -3.493967  26 H  s         
   471      2.916483  28 C  s               318     -2.804266  19 C  py        
   164     -2.634003  10 H  s               267      2.453654  16 N  s         
   291      2.378438  17 H  s               418     -2.270214  24 H  s         

 Vector   83  Occ=0.000000D+00  E= 5.660882D-02
              MO Center= -9.7D-01,  3.3D-01, -8.0D-01, r^2= 4.4D+01
   Bfn.  Coefficient  Atom+Function         Bfn.  Coefficient  Atom+Function  
  ----- ------------  ---------------      ----- ------------  ---------------
   207      4.366559  13 H  s               564     -4.381424  33 C  s         
   198     -2.942283  12 H  s               418     -2.865190  24 H  s         
    46     -2.808179   4 H  s                56     -2.775777   5 C  s         
    63     -2.631766   5 C  px              147     -2.639081   9 C  px        
   614      2.639673  35 N  s               181      2.508034  11 C  px        

 Vector   84  Occ=0.000000D+00  E= 5.906849D-02
              MO Center=  1.1D+00,  7.0D-01, -1.5D+00, r^2= 3.7D+01
   Bfn.  Coefficient  Atom+Function         Bfn.  Coefficient  Atom+Function  
  ----- ------------  ---------------      ----- ------------  ---------------
   164      5.504890  10 H  s               149      4.336231   9 C  pz        
   418     -4.241138  24 H  s               310      3.977048  19 C  s         
   471      3.710982  28 C  s               384     -3.342571  22 H  s         
   318      3.109549  19 C  py              647      2.876000  37 H  s         
   198     -2.647596  12 H  s               401      2.641435  23 C  px        

 Vector   85  Occ=0.000000D+00  E= 6.594106D-02
              MO Center= -1.7D+00, -4.9D-01,  9.7D-01, r^2= 3.9D+01
   Bfn.  Coefficient  Atom+Function         Bfn.  Coefficient  Atom+Function  
  ----- ------------  ---------------      ----- ------------  ---------------
    46      5.249346   4 H  s               471      5.200204  28 C  s         
   217      4.077683  14 C  s               452      3.679706  26 H  s         
   418     -3.633769  24 H  s                 3     -3.174972   1 H  s         
   521     -2.858307  30 N  s               174     -2.633438  11 C  s         
   401      2.535132  23 C  px              403     -2.373668  23 C  pz        

 Vector   86  Occ=0.000000D+00  E= 7.193933D-02
              MO Center=  3.5D-01,  4.8D-01,  6.8D-01, r^2= 4.2D+01
   Bfn.  Coefficient  Atom+Function         Bfn.  Coefficient  Atom+Function  
  ----- ------------  ---------------      ----- ------------  ---------------
   384      5.909784  22 H  s               198     -5.262619  12 H  s         
     3     -4.300896   1 H  s               318      3.783692  19 C  py        
    63     -3.612697   5 C  px              418      3.366026  24 H  s         
    56     -3.329809   5 C  s               461     -2.843453  27 H  s         
   452     -2.789072  26 H  s               300      2.743923  18 H  s         

 Vector   87  Occ=0.000000D+00  E= 7.298685D-02
              MO Center= -5.0D-01,  2.4D-01,  2.2D-01, r^2= 4.8D+01
   Bfn.  Coefficient  Atom+Function         Bfn.  Coefficient  Atom+Function  
  ----- ------------  ---------------      ----- ------------  ---------------
   207      5.373487  13 H  s               554     -3.882765  32 H  s         
    37     -3.358466   3 H  s               198     -3.318396  12 H  s         
   174     -2.803496  11 C  s               181      2.768487  11 C  px        
   418      2.643716  24 H  s               384      2.614734  22 H  s         
   217      2.595787  14 C  s               564      2.479832  33 C  s         

 Vector   88  Occ=0.000000D+00  E= 7.967980D-02
              MO Center=  1.4D+00,  5.6D-01,  6.4D-01, r^2= 4.1D+01
   Bfn.  Coefficient  Atom+Function         Bfn.  Coefficient  Atom+Function  
  ----- ------------  ---------------      ----- ------------  ---------------
   217      6.884378  14 C  s               461      4.605842  27 H  s         
   564      3.586912  33 C  s               300      3.455886  18 H  s         
   647     -3.189750  37 H  s               267     -2.995292  16 N  s         
   318      2.767069  19 C  py              149      2.581124   9 C  pz        
    46     -2.547080   4 H  s               291     -2.547758  17 H  s         

 Vector   89  Occ=0.000000D+00  E= 8.304972D-02
              MO Center= -8.4D-02, -3.4D-01, -1.8D+00, r^2= 3.9D+01
   Bfn.  Coefficient  Atom+Function         Bfn.  Coefficient  Atom+Function  
  ----- ------------  ---------------      ----- ------------  ---------------
   384      7.387375  22 H  s               647     -7.359773  37 H  s         
   217      4.925660  14 C  s               164      3.920281  10 H  s         
   140     -3.358124   9 C  s               300     -3.348752  18 H  s         
   310     -2.615333  19 C  s               638      2.578253  36 H  s         
   149      2.368683   9 C  pz              394     -2.265400  23 C  s         

 Vector   90  Occ=0.000000D+00  E= 9.061935D-02
              MO Center=  6.3D-01,  6.8D-01,  1.2D+00, r^2= 3.8D+01
   Bfn.  Coefficient  Atom+Function         Bfn.  Coefficient  Atom+Function  
  ----- ------------  ---------------      ----- ------------  ---------------
   217      8.834241  14 C  s               471     -7.645727  28 C  s         
   461      7.095139  27 H  s               452     -5.525321  26 H  s         
[...]
   140      8.788883   9 C  s               174     -8.436486  11 C  s         
   614     -8.464988  35 N  s               217     -7.896965  14 C  s         
   461     -5.857018  27 H  s               319      5.623876  19 C  pz        

 Vector  184  Occ=0.000000D+00  E= 4.362321D-01
              MO Center=  2.9D-01, -1.0D-01, -4.7D-01, r^2= 1.8D+01
   Bfn.  Coefficient  Atom+Function         Bfn.  Coefficient  Atom+Function  
  ----- ------------  ---------------      ----- ------------  ---------------
   217     22.001673  14 C  s               360     14.953630  21 N  s         
   564    -13.934626  33 C  s               267    -10.552971  16 N  s         
   140    -10.010285   9 C  s               310     -9.923241  19 C  s         
   148     -9.134020   9 C  py              317      8.539730  19 C  px        
   368     -7.239988  21 N  py               13      6.725223   2 C  s         

 Vector  185  Occ=0.000000D+00  E= 4.389266D-01
              MO Center=  3.1D-01,  2.8D-02, -1.4D-01, r^2= 1.9D+01
   Bfn.  Coefficient  Atom+Function         Bfn.  Coefficient  Atom+Function  
  ----- ------------  ---------------      ----- ------------  ---------------
   384     18.587380  22 H  s               318    -13.548431  19 C  py        
   106     12.250595   7 N  s               148     12.084933   9 C  py        
   217    -11.130708  14 C  s               564    -11.185544  33 C  s         
   471     -9.530902  28 C  s               402     -9.363270  23 C  py        
   174     -8.944472  11 C  s               403      7.733236  23 C  pz        

 Vector  186  Occ=0.000000D+00  E= 4.430247D-01
              MO Center= -7.5D-01,  2.9D-01, -1.8D-01, r^2= 2.0D+01
   Bfn.  Coefficient  Atom+Function         Bfn.  Coefficient  Atom+Function  
  ----- ------------  ---------------      ----- ------------  ---------------
   564     23.965841  33 C  s               174    -13.636376  11 C  s         
   384     11.294701  22 H  s               402     10.792052  23 C  py        
   614    -10.373896  35 N  s               140     -8.823262   9 C  s         
   471     -8.857731  28 C  s               106     -7.146385   7 N  s         
   403      7.131108  23 C  pz              113      7.057603   7 N  px        

 Vector  187  Occ=0.000000D+00  E= 4.478825D-01
              MO Center= -3.0D-01, -1.6D+00,  8.7D-02, r^2= 2.0D+01
   Bfn.  Coefficient  Atom+Function         Bfn.  Coefficient  Atom+Function  
  ----- ------------  ---------------      ----- ------------  ---------------
   310     18.981034  19 C  s                13    -13.959780   2 C  s         
   428    -12.766005  25 C  s               140     12.096867   9 C  s         
    63    -11.331759   5 C  px              147    -11.046080   9 C  px        
   360    -10.167529  21 N  s               471      9.696619  28 C  s         
   564      8.509195  33 C  s               401     -7.920133  23 C  px        

 Vector  188  Occ=0.000000D+00  E= 4.551433D-01
              MO Center= -1.6D+00,  3.1D-01,  5.2D-01, r^2= 2.0D+01
   Bfn.  Coefficient  Atom+Function         Bfn.  Coefficient  Atom+Function  
  ----- ------------  ---------------      ----- ------------  ---------------
   564    -17.970973  33 C  s                13     16.784012   2 C  s         
   384    -16.461889  22 H  s                56     14.534396   5 C  s         
   360     14.442775  21 N  s               614     12.031141  35 N  s         
    12      8.820059   2 C  s                36     -8.194824   3 H  s         
   113      7.745563   7 N  px              471      7.526420  28 C  s         

 Vector  189  Occ=0.000000D+00  E= 4.562836D-01
              MO Center= -2.4D-01, -3.8D-01,  8.2D-02, r^2= 2.1D+01
   Bfn.  Coefficient  Atom+Function         Bfn.  Coefficient  Atom+Function  
  ----- ------------  ---------------      ----- ------------  ---------------
   217     15.553220  14 C  s               564     10.870153  33 C  s         
   267    -10.741595  16 N  s               384      9.733048  22 H  s         
   173     -7.080410  11 C  s               368      7.096648  21 N  py        
   310     -6.926211  19 C  s               403      6.617868  23 C  pz        
   471     -5.963437  28 C  s                12     -5.877030   2 C  s         

 Vector  190  Occ=0.000000D+00  E= 4.614971D-01
              MO Center= -6.8D-02, -2.9D-01,  1.2D-02, r^2= 2.0D+01
   Bfn.  Coefficient  Atom+Function         Bfn.  Coefficient  Atom+Function  
  ----- ------------  ---------------      ----- ------------  ---------------
   310     17.092306  19 C  s               384    -13.386601  22 H  s         
   428    -12.881162  25 C  s               394     11.377923  23 C  s         
   267     10.131496  16 N  s               140     10.049157   9 C  s         
   217     -9.972847  14 C  s               471     -8.651035  28 C  s         
   403      7.950625  23 C  pz              319     -7.845882  19 C  pz        

 Vector  191  Occ=0.000000D+00  E= 4.647732D-01
              MO Center=  3.9D-02,  4.2D-01, -3.8D-01, r^2= 2.0D+01
   Bfn.  Coefficient  Atom+Function         Bfn.  Coefficient  Atom+Function  
  ----- ------------  ---------------      ----- ------------  ---------------
   564     29.343231  33 C  s               148     20.144467   9 C  py        
   174    -14.922637  11 C  s               318    -13.823176  19 C  py        
    56     11.792705   5 C  s               402     11.164412  23 C  py        
   106     10.406866   7 N  s               217    -10.362355  14 C  s         
   360     -9.974165  21 N  s               368      9.838798  21 N  py        

 Vector  192  Occ=0.000000D+00  E= 4.661432D-01
              MO Center= -1.9D-01, -8.0D-01,  5.7D-03, r^2= 2.0D+01
   Bfn.  Coefficient  Atom+Function         Bfn.  Coefficient  Atom+Function  
  ----- ------------  ---------------      ----- ------------  ---------------
   564     20.338668  33 C  s               318     12.178274  19 C  py        
   319    -10.293335  19 C  pz              149      9.954939   9 C  pz        
   367      8.385072  21 N  px              317     -7.745969  19 C  px        
   402      7.625257  23 C  py              147     -7.571337   9 C  px        
   174     -6.749273  11 C  s               140     -6.599867   9 C  s         

 Vector  193  Occ=0.000000D+00  E= 4.704280D-01
              MO Center= -1.1D-01, -1.3D-01,  7.9D-01, r^2= 1.9D+01
   Bfn.  Coefficient  Atom+Function         Bfn.  Coefficient  Atom+Function  
  ----- ------------  ---------------      ----- ------------  ---------------
   310     20.560112  19 C  s               217    -18.819058  14 C  s         
   140     17.117514   9 C  s               428    -12.635820  25 C  s         
   564    -12.344173  33 C  s               318    -12.218029  19 C  py        
   368    -11.517179  21 N  py              402    -11.012626  23 C  py        
   267      8.940368  16 N  s               174      8.406611  11 C  s         

 Vector  194  Occ=0.000000D+00  E= 4.755443D-01
              MO Center=  4.5D-01,  6.1D-01,  1.7D-01, r^2= 2.1D+01
   Bfn.  Coefficient  Atom+Function         Bfn.  Coefficient  Atom+Function  
  ----- ------------  ---------------      ----- ------------  ---------------
   174     18.949089  11 C  s               428     17.958342  25 C  s         
   318     15.003759  19 C  py              148    -13.573393   9 C  py        
   217    -12.638622  14 C  s                56    -10.537941   5 C  s         
   403    -10.232952  23 C  pz              310     -8.071971  19 C  s         
   437     -7.555552  25 C  pz              367     -6.894308  21 N  px        

 Vector  195  Occ=0.000000D+00  E= 4.813662D-01
              MO Center= -2.0D-01, -1.0D+00, -3.9D-02, r^2= 2.1D+01
   Bfn.  Coefficient  Atom+Function         Bfn.  Coefficient  Atom+Function  
  ----- ------------  ---------------      ----- ------------  ---------------
   564     21.865545  33 C  s               174    -17.428963  11 C  s         
   428    -16.188809  25 C  s                56     11.533553   5 C  s         
   368     10.506221  21 N  py              521      8.408334  30 N  s         
   217      7.541833  14 C  s               403      7.045108  23 C  pz        
   197      6.625281  12 H  s               589     -6.636331  34 O  s         

 Vector  196  Occ=0.000000D+00  E= 4.859798D-01
              MO Center=  5.0D-01,  4.6D-01,  3.3D-01, r^2= 1.8D+01
   Bfn.  Coefficient  Atom+Function         Bfn.  Coefficient  Atom+Function  
  ----- ------------  ---------------      ----- ------------  ---------------
   428     19.571898  25 C  s               217    -17.757314  14 C  s         
   310    -12.994910  19 C  s               106      9.362079   7 N  s         
   267      9.044670  16 N  s               368      8.796401  21 N  py        
   174      7.919786  11 C  s                56     -6.879165   5 C  s         
   564     -6.672716  33 C  s               403     -6.436427  23 C  pz        

 Vector  197  Occ=0.000000D+00  E= 4.897145D-01
              MO Center= -4.0D-01, -6.1D-01, -3.8D-01, r^2= 2.1D+01
   Bfn.  Coefficient  Atom+Function         Bfn.  Coefficient  Atom+Function  
  ----- ------------  ---------------      ----- ------------  ---------------
   564     28.276699  33 C  s                56     21.633848   5 C  s         
   174    -19.117595  11 C  s               471    -17.557181  28 C  s         
   428    -16.253648  25 C  s               318    -12.166307  19 C  py        
   148     10.801632   9 C  py              147     10.662905   9 C  px        
   384     -9.684810  22 H  s               403      9.616487  23 C  pz        

 Vector  198  Occ=0.000000D+00  E= 4.929534D-01
              MO Center= -1.0D-01,  1.6D+00, -1.3D-01, r^2= 1.9D+01
   Bfn.  Coefficient  Atom+Function         Bfn.  Coefficient  Atom+Function  
  ----- ------------  ---------------      ----- ------------  ---------------
   174     21.884301  11 C  s               106    -11.588770   7 N  s         
   113     -9.703250   7 N  px              217      9.712845  14 C  s         
   471     -9.352275  28 C  s               428      7.356542  25 C  s         
    56     -7.125054   5 C  s               182     -6.959991  11 C  py        
   242     -6.626675  15 O  s               130     -6.238862   8 H  s         

 Vector  199  Occ=0.000000D+00  E= 4.997244D-01
              MO Center=  6.1D-02, -6.0D-01,  2.6D-01, r^2= 1.9D+01
   Bfn.  Coefficient  Atom+Function         Bfn.  Coefficient  Atom+Function  
  ----- ------------  ---------------      ----- ------------  ---------------
   471     16.711905  28 C  s               521    -12.329070  30 N  s         
   564    -12.029288  33 C  s               367    -10.926247  21 N  px        
   174    -10.421185  11 C  s               384     10.304335  22 H  s         
   427     -7.913453  25 C  s               368     -7.622008  21 N  py        
   403     -7.233237  23 C  pz               13     -6.770101   2 C  s         

 Vector  200  Occ=0.000000D+00  E= 5.021077D-01
              MO Center=  1.3D-01, -5.7D-03,  4.4D-01, r^2= 2.0D+01
   Bfn.  Coefficient  Atom+Function         Bfn.  Coefficient  Atom+Function  
  ----- ------------  ---------------      ----- ------------  ---------------
   471     21.311379  28 C  s               427     -9.211695  25 C  s         
   174     -8.829815  11 C  s               217      8.500149  14 C  s         
   521     -8.271943  30 N  s               496     -7.474184  29 O  s         
   384     -6.356764  22 H  s               394     -6.010282  23 C  s         
   173     -5.664847  11 C  s               147     -5.187662   9 C  px        


 center of mass
 --------------
 x =   0.02593813 y =  -0.00484267 z =  -0.00572769

 moments of inertia (a.u.)
 ------------------
        7423.608558724912          -0.000000000001          -0.000000000002
          -0.000000000001        3708.295793416922           0.000000000001
          -0.000000000002           0.000000000001        8024.129809730014

  Mulliken analysis of the total density
  --------------------------------------

    Atom       Charge   Shell Charges
 -----------   ------   -------------------------------------------------------
    1 H    1     0.79   0.75  0.07  0.00  0.03 -0.06
    2 C    6     6.31   2.01  0.66  0.27  0.12  2.07  1.01 -0.01  0.06  0.11
    3 H    1     0.82   0.76  0.09  0.01  0.03 -0.07
    4 H    1     1.00   0.77  0.26  0.01  0.03 -0.07
    5 C    6     5.29   2.01  0.68  0.10  0.04  1.89  0.35 -0.02  0.24  0.01
    6 O    8     8.88   2.01  0.81  1.01  0.20  2.80  1.88  0.15  0.01 -0.01
    7 N    7     7.44   2.01  0.72  0.81 -0.14  2.45  1.42  0.10  0.05  0.03
    8 H    1     0.95   0.75  0.20 -0.01  0.06 -0.04
    9 C    6     6.63   2.01  0.66  0.09  0.06  1.99  1.46  0.09  0.14  0.13
   10 H    1     1.02   0.78  0.20  0.01  0.03  0.00
   11 C    6     6.30   2.01  0.66  0.69 -0.05  2.06  0.78 -0.04  0.09  0.10
   12 H    1     0.84   0.77  0.11 -0.01  0.03 -0.06
   13 H    1     0.85   0.77  0.12 -0.01  0.03 -0.06
   14 C    6     4.60   2.01  0.68  0.03 -0.03  1.91 -0.15  0.03  0.24 -0.12
   15 O    8     8.82   2.01  0.82  1.03  0.19  2.80  1.83  0.13  0.02 -0.00
   16 N    7     7.20   2.01  0.72  0.76 -0.14  2.47  1.25  0.11  0.04 -0.02
   17 H    1     1.00   0.76  0.22 -0.01  0.05 -0.03
   18 H    1     0.88   0.73  0.17 -0.02  0.06 -0.07
   19 C    6     4.53   2.01  0.68 -0.00  0.06  1.88  0.03  0.01  0.24 -0.38
   20 O    8     8.94   2.01  0.82  1.05  0.20  2.80  1.88  0.18  0.01 -0.00
   21 N    7     7.44   2.01  0.72  0.87 -0.14  2.46  1.41  0.01  0.05  0.05
   22 H    1     0.93   0.74  0.32 -0.01  0.06 -0.17
   23 C    6     6.21   2.01  0.66  0.02 -0.03  1.99  1.35  0.06  0.14  0.02
   24 H    1     1.15   0.77  0.38 -0.00  0.03 -0.01
   25 C    6     6.10   2.01  0.66  0.67 -0.10  2.06  0.67 -0.05  0.09  0.10
   26 H    1     0.90   0.77  0.16 -0.00  0.03 -0.06
   27 H    1     1.02   0.77  0.30 -0.03  0.03 -0.06
   28 C    6     4.58   2.01  0.68  0.02  0.05  1.91 -0.21  0.02  0.24 -0.14
   29 O    8     8.83   2.01  0.82  1.03  0.16  2.80  1.84  0.16  0.02 -0.00
   30 N    7     7.23   2.01  0.72  0.80 -0.13  2.47  1.25  0.08  0.04 -0.02
   31 H    1     1.00   0.76  0.22 -0.01  0.05 -0.03
   32 H    1     0.89   0.74  0.16 -0.01  0.06 -0.05
   33 C    6     4.56   2.01  0.68  0.12 -0.04  1.88 -0.19 -0.02  0.23 -0.12
   34 O    8     8.87   2.01  0.82  1.04  0.19  2.80  1.86  0.15  0.01 -0.00
   35 N    7     7.29   2.01  0.72  0.84 -0.13  2.46  1.27  0.09  0.04 -0.01
   36 H    1     0.99   0.75  0.21 -0.01  0.05 -0.03
   37 H    1     0.90   0.74  0.18 -0.02  0.06 -0.06

       Multipole analysis of the density wrt the origin
       ------------------------------------------------

     L   x y z        total         open         nuclear
     -   - - -        -----         ----         -------
     0   0 0 0     -0.000000      0.000000    152.000000

     1   1 0 0     -0.249206      0.000000      0.000000
     1   0 1 0     -0.568625      0.000000      0.000000
     1   0 0 1     -0.708138      0.000000      0.000000

     2   2 0 0    -85.336975      0.000000   1204.125191
     2   1 1 0      5.926664      0.000000      4.162825
     2   1 0 1      2.801478      0.000000      0.454878
     2   0 2 0    -95.920789      0.000000   3127.482398
     2   0 1 1     -6.832257      0.000000    -15.778234
     2   0 0 2    -87.464616      0.000000    847.499413


 Task  times  cpu:     5008.2s     wall:     5023.6s


                                NWChem Input Module
                                -------------------


 Summary of allocated global arrays
-----------------------------------
  No active global arrays


MA_summarize_allocated_blocks: starting scan ...
MA_summarize_allocated_blocks: scan completed: 0 heap blocks, 0 stack blocks
MA usage statistics:

	allocation statistics:
					      heap	     stack
					      ----	     -----
	current number of blocks	         0	         0
	maximum number of blocks	        16	        14
	current total bytes		         0	         0
	maximum total bytes		    138336	  29746664
	maximum total K-bytes		       139	     29747
	maximum total M-bytes		         1	        30


                                     CITATION
                                     --------
                Please cite the following reference when publishing
                           results obtained with NWChem:

          E. Apra, E. J. Bylaska, W. A. de Jong, N. Govind, K. Kowalski,
       T. P. Straatsma, M. Valiev, H. J. J. van Dam, Y. Alexeev, J. Anchell,
       V. Anisimov, F. W. Aquino, R. Atta-Fynn, J. Autschbach, N. P. Bauman,
     J. C. Becca, D. E. Bernholdt, K. Bhaskaran-Nair, S. Bogatko, P. Borowski,
         J. Boschen, J. Brabec, A. Bruner, E. Cauet, Y. Chen, G. N. Chuev,
      C. J. Cramer, J. Daily, M. J. O. Deegan, T. H. Dunning Jr., M. Dupuis,
   K. G. Dyall, G. I. Fann, S. A. Fischer, A. Fonari, H. Fruchtl, L. Gagliardi,
      J. Garza, N. Gawande, S. Ghosh, K. Glaesemann, A. W. Gotz, J. Hammond,
       V. Helms, E. D. Hermes, K. Hirao, S. Hirata, M. Jacquelin, L. Jensen,
   B. G. Johnson, H. Jonsson, R. A. Kendall, M. Klemm, R. Kobayashi, V. Konkov,
      S. Krishnamoorthy, M. Krishnan, Z. Lin, R. D. Lins, R. J. Littlefield,
      A. J. Logsdail, K. Lopata, W. Ma, A. V. Marenich, J. Martin del Campo,
   D. Mejia-Rodriguez, J. E. Moore, J. M. Mullin, T. Nakajima, D. R. Nascimento,
    J. A. Nichols, P. J. Nichols, J. Nieplocha, A. Otero-de-la-Roza, B. Palmer,
    A. Panyala, T. Pirojsirikul, B. Peng, R. Peverati, J. Pittner, L. Pollack,
   R. M. Richard, P. Sadayappan, G. C. Schatz, W. A. Shelton, D. W. Silverstein,
   D. M. A. Smith, T. A. Soares, D. Song, M. Swart, H. L. Taylor, G. S. Thomas,
            V. Tipparaju, D. G. Truhlar, K. Tsemekhman, T. Van Voorhis,
      A. Vazquez-Mayagoitia, P. Verma, O. Villa, A. Vishnu, K. D. Vogiatzis,
        D. Wang, J. H. Weare, M. J. Williamson, T. L. Windus, K. Wolinski,
        A. T. Wong, Q. Wu, C. Yang, Q. Yu, M. Zacharias, Z. Zhang, Y. Zhao,
                                and R. J. Harrison
                        "NWChem: Past, present, and future
                         J. Chem. Phys. 152, 184102 (2020)
                               doi:10.1063/5.0004997

                                      AUTHORS
                                      -------
  E. Apra, E. J. Bylaska, N. Govind, K. Kowalski, M. Valiev, D. Mejia-Rodriguez,
       A. Kunitsa, N. P. Bauman, A. Panyala, W. A. de Jong, T. P. Straatsma,
   H. J. J. van Dam, D. Wang, T. L. Windus, J. Hammond, J. Autschbach, A. Woods,
    K. Bhaskaran-Nair, J. Brabec, K. Lopata, S. A. Fischer, S. Krishnamoorthy,
     M. Jacquelin, W. Ma, M. Klemm, O. Villa, Y. Chen, V. Anisimov, F. Aquino,
     S. Hirata, M. T. Hackler, E. Hermes, L. Jensen, J. E. Moore, J. C. Becca,
      V. Konjkov, T. Risthaus, M. Malagoli, A. Marenich, A. Otero-de-la-Roza,
        J. Mullin, P. Nichols, R. Peverati, J. Pittner, Y. Zhao, P.-D. Fan,
        A. Fonari, M. J. Williamson, R. J. Harrison, J. R. Rehr, M. Dupuis,
     D. Silverstein, D. M. A. Smith, J. Nieplocha, V. Tipparaju, M. Krishnan,
     B. E. Van Kuiken, A. Vazquez-Mayagoitia, M. Swart, Q. Wu, T. Van Voorhis,
     A. A. Auer, M. Nooijen, L. D. Crosby, E. Brown, G. Cisneros, G. I. Fann,
   H. Fruchtl, J. Garza, K. Hirao, R. A. Kendall, J. A. Nichols, K. Tsemekhman,
    K. Wolinski, J. Anchell, D. E. Bernholdt, P. Borowski, T. Clark, D. Clerc,
   H. Dachsel, M. J. O. Deegan, K. Dyall, D. Elwood, E. Glendening, M. Gutowski,
   A. C. Hess, J. Jaffe, B. G. Johnson, J. Ju, R. Kobayashi, R. Kutteh, Z. Lin,
   R. Littlefield, X. Long, B. Meng, T. Nakajima, S. Niu, L. Pollack, M. Rosing,
   K. Glaesemann, G. Sandrone, M. Stave, H. Taylor, G. Thomas, J. H. van Lenthe,
                               A. T. Wong, Z. Zhang.

 Total times  cpu:     5008.2s     wall:     5024.1s
