export TMOUT=5400
export TMPDIR=/tmp
export PTMPDIR=/tmp/ptmp
 argument  1 = inputs/ASN_CYS_5.nw



============================== echo of input deck ==============================
start ASN_CYS_5
geometry
H         12.37900        8.43200        4.39500
C         12.91900        8.09200        3.51400
H         12.55300        7.11100        3.21600
H         13.98500        8.03400        3.72800
C         12.69000        9.06400        2.38000
O         12.16300        8.68600        1.34300
N         13.08700       10.31800        2.58300
H         13.54400       10.54500        3.45400
C         13.00500       11.39500        1.59300
H         13.20400       10.97900        0.60200
C         11.57400       11.97700        1.60700
H         10.85200       11.17300        1.46800
H         11.39100       12.44300        2.57500
C         11.33100       13.00000        0.50800
O         11.94500       12.98100       -0.54600
N         10.46300       13.95600        0.73000
H         10.38500       14.65600        0.01500
H         10.00700       14.03600        1.61800
C         14.07000       12.47300        1.88100
O         14.61200       12.53700        2.98500
N         14.35000       13.34100        0.90800
H         13.80600       13.27100        0.05500
C         15.13400       14.55500        1.11900
H         16.07800       14.28200        1.59300
C         15.43900       15.17300       -0.25300
H         15.96900       14.44100       -0.86500
H         14.50500       15.43800       -0.75300
S         16.47600       16.65300       -0.07700
H         15.51100       17.48400        0.33800
C         14.39400       15.53500        2.05300
O         13.19200       15.75100        1.92700
N         15.09700       16.17000        2.98100
H         16.08300       15.99400        3.08000
H         14.61100       16.80300        3.59500
end

basis
 * library aug-cc-pvdz
end

echo

scf
 direct
end

task scf energy
================================================================================


                                         
                                         


             Northwest Computational Chemistry Package (NWChem) 7.2.0
             --------------------------------------------------------


                    Environmental Molecular Sciences Laboratory
                       Pacific Northwest National Laboratory
                                Richland, WA 99352

                              Copyright (c) 1994-2022
                       Pacific Northwest National Laboratory
                            Battelle Memorial Institute

             NWChem is an open-source computational chemistry package
                        distributed under the terms of the
                      Educational Community License (ECL) 2.0
             A copy of the license is included with this distribution
                              in the LICENSE.TXT file

                                  ACKNOWLEDGMENT
                                  --------------

            This software and its documentation were developed at the
            EMSL at Pacific Northwest National Laboratory, a multiprogram
            national laboratory, operated for the U.S. Department of Energy
            by Battelle under Contract Number DE-AC05-76RL01830. Support
            for this work was provided by the Department of Energy Office
            of Biological and Environmental Research, Office of Basic
            Energy Sciences, and the Office of Advanced Scientific Computing.


           Job information
           ---------------

    hostname        = nova21-speedy-12
    program         = /opt/rit/el9/20230413/app/linux-rhel9-x86_64_v3/gcc-11.2.1/nwchem-7.2.0-oxtctbuhfuzyfaoziquq6bki22grib3g/bin/nwchem
    date            = Thu Jul 10 05:27:41 2025

    compiled        = Wed_May_17_23:46:39_2023
    source          = /tmp/root/spack-stage/spack-stage-nwchem-7.2.0-oxtctbuhfuzyfaoziquq6bki22grib3g/spack-src
    nwchem branch   = 7.2.0
    nwchem revision = d0d141fd
    ga revision     = 5.8.0
    use scalapack   = T
    input           = inputs/ASN_CYS_5.nw
    prefix          = ASN_CYS_5.
    data base       = ./ASN_CYS_5.db
    status          = startup
    nproc           =        8
    time left       =     -1s



           Memory information
           ------------------

    heap     =   26214396 doubles =    200.0 Mbytes
    stack    =   26214401 doubles =    200.0 Mbytes
    global   =   52428800 doubles =    400.0 Mbytes (distinct from heap & stack)
    total    =  104857597 doubles =    800.0 Mbytes
    verify   = yes
    hardfail = no 


           Directory information
           ---------------------

  0 permanent = .
  0 scratch   = .




                                NWChem Input Module
                                -------------------



 Scaling coordinates for geometry "geometry" by  1.889725989
 (inverse scale =  0.529177249)

 C1  symmetry detected

          ------
          auto-z
          ------
  no constraints, skipping    0.0000000000000000     
  no constraints, skipping    0.0000000000000000     


                             Geometry "geometry" -> ""
                             -------------------------

 Output coordinates in angstroms (scale by  1.889725989 to convert to a.u.)

  No.       Tag          Charge          X              Y              Z
 ---- ---------------- ---------- -------------- -------------- --------------
    1 H                    1.0000     1.72835041    -5.24874255     1.31364764
    2 C                    6.0000     1.85348925    -5.15621008     0.23701446
    3 H                    1.0000     1.68820512    -6.12298795    -0.23536538
    4 H                    1.0000     2.85769062    -4.80439262     0.00610306
    5 C                    6.0000     0.84324506    -4.17016835    -0.30178921
    6 O                    8.0000     0.01855374    -4.52630434    -1.13186956
    7 N                    7.0000     0.91069863    -2.92967828     0.17567115
    8 H                    1.0000     1.64122598    -2.70495080     0.83509995
    9 C                    6.0000     0.06124215    -1.81675488    -0.25627582
   10 H                    1.0000    -0.12760516    -1.91277223    -1.32858891
   11 C                    6.0000    -1.28733200    -1.89911476     0.49288745
   12 H                    1.0000    -1.72306334    -2.88767080     0.35176283
   13 H                    1.0000    -1.11050393    -1.74758589     1.55751876
   14 C                    6.0000    -2.30709804    -0.88033503     0.00755861
   15 O                    8.0000    -2.29507880    -0.43852146    -1.12951188
   16 N                    7.0000    -3.19586424    -0.43569436     0.86139308
   17 H                    1.0000    -3.80265986     0.29111086     0.52843324
   18 H                    1.0000    -3.17341060    -0.72551746     1.81971370
   19 C                    6.0000     0.77452620    -0.47042162    -0.01572307
   20 O                    8.0000     1.73362643    -0.39985531     0.75357735
   21 N                    7.0000     0.29372472     0.60451194    -0.64174286
   22 H                    1.0000    -0.54544049     0.47951725    -1.19728140
   23 C                    6.0000     0.69788568     1.96929768    -0.31465446
   24 H                    1.0000     1.78652500     2.02925511    -0.35478599
   25 C                    6.0000     0.11890362     2.90929182    -1.38167077
   26 H                    1.0000     0.47650689     2.59769703    -2.36467463
   27 H                    1.0000    -0.97155588     2.85139682    -1.37039116
   28 S                   16.0000     0.64028019     4.62260163    -1.08253709
   29 H                    1.0000    -0.20106536     4.87864110    -0.07229333
   30 C                    6.0000     0.24860669     2.35172172     1.11091779
   31 O                    8.0000    -0.87178467     2.06663363     1.52417797
   32 N                    7.0000     1.09379618     3.03050922     1.87480276
   33 H                    1.0000     2.01043203     3.26625721     1.53249498
   34 H                    1.0000     0.80205333     3.27211982     2.80775047

      Atomic Mass 
      ----------- 

      H                  1.007825
      C                 12.000000
      O                 15.994910
      N                 14.003070
      S                 31.972070


 Effective nuclear repulsion energy (a.u.)    1532.5562967108

            Nuclear Dipole moment (a.u.) 
            ----------------------------
        X                 Y               Z
 ---------------- ---------------- ----------------
     0.0000000000    -0.0000000000     0.0000000000



                                Z-matrix (autoz)
                                -------- 

 Units are Angstrom for bonds and degrees for angles

      Type          Name      I     J     K     L     M      Value
      ----------- --------  ----- ----- ----- ----- ----- ----------
    1 Stretch                  1     2                       1.08782
    2 Stretch                  2     3                       1.08863
    3 Stretch                  2     4                       1.08881
    4 Stretch                  2     5                       1.51102
    5 Stretch                  5     6                       1.22310
    6 Stretch                  5     7                       1.33091
    7 Stretch                  7     8                       1.00946
    8 Stretch                  7     9                       1.46518
    9 Stretch                  9    10                       1.09304
   10 Stretch                  9    11                       1.54489
   11 Stretch                  9    19                       1.54248
   12 Stretch                 11    12                       1.08950
   13 Stretch                 11    13                       1.08980
   14 Stretch                 11    14                       1.52098
   15 Stretch                 14    15                       1.21995
   16 Stretch                 14    16                       1.31021
   17 Stretch                 16    17                       1.00365
   18 Stretch                 16    18                       1.00144
   19 Stretch                 19    20                       1.23153
   20 Stretch                 19    21                       1.33362
   21 Stretch                 21    22                       1.01412
   22 Stretch                 21    23                       1.46047
   23 Stretch                 23    24                       1.09103
   24 Stretch                 23    25                       1.53536
   25 Stretch                 23    30                       1.54284
   26 Stretch                 25    26                       1.09145
   27 Stretch                 25    27                       1.09205
   28 Stretch                 25    28                       1.81569
   29 Stretch                 28    29                       1.33941
   30 Stretch                 30    31                       1.22774
   31 Stretch                 30    32                       1.32613
   32 Stretch                 32    33                       1.00647
   33 Stretch                 32    34                       1.00692
   34 Bend                     1     2     3               109.66075
   35 Bend                     1     2     4               110.08879
   36 Bend                     1     2     5               109.36057
   37 Bend                     2     5     6               120.18483
   38 Bend                     2     5     7               116.51439
   39 Bend                     3     2     4               109.56989
   40 Bend                     3     2     5               108.86170
   41 Bend                     4     2     5               109.27776
   42 Bend                     5     7     8               118.58893
   43 Bend                     5     7     9               124.94775
   44 Bend                     6     5     7               123.30072
   45 Bend                     7     9    10               108.82385
   46 Bend                     7     9    11               108.82232
   47 Bend                     7     9    19               110.42104
   48 Bend                     8     7     9               116.29834
   49 Bend                     9    11    12               109.55260
   50 Bend                     9    11    13               108.94613
   51 Bend                     9    11    14               113.25493
   52 Bend                     9    19    20               120.50154
   53 Bend                     9    19    21               117.62004
   54 Bend                    10     9    11               108.67706
   55 Bend                    10     9    19               108.03286
   56 Bend                    11     9    19               111.99774
   57 Bend                    11    14    15               122.23455
   58 Bend                    11    14    16               118.30560
   59 Bend                    12    11    13               108.51730
   60 Bend                    12    11    14               107.35435
   61 Bend                    13    11    14               109.10949
   62 Bend                    14    16    17               116.08349
   63 Bend                    14    16    18               120.67686
   64 Bend                    15    14    16               119.41855
   65 Bend                    17    16    18               122.72444
   66 Bend                    19    21    22               117.13729
   67 Bend                    19    21    23               123.25170
   68 Bend                    20    19    21               121.85773
   69 Bend                    21    23    24               108.61723
   70 Bend                    21    23    25               108.18699
   71 Bend                    21    23    30               110.97640
   72 Bend                    22    21    23               117.83042
   73 Bend                    23    25    26               109.12153
   74 Bend                    23    25    27               109.68888
   75 Bend                    23    25    28               110.78912
   76 Bend                    23    30    31               121.27885
   77 Bend                    23    30    32               118.26327
   78 Bend                    24    23    25               108.48551
   79 Bend                    24    23    30               108.11534
   80 Bend                    25    23    30               112.36919
   81 Bend                    25    28    29                97.13851
   82 Bend                    26    25    27               108.74332
   83 Bend                    26    25    28               108.88597
   84 Bend                    27    25    28               109.57586
   85 Bend                    30    32    33               120.29380
   86 Bend                    30    32    34               118.15577
   87 Bend                    31    30    32               120.43599
   88 Bend                    33    32    34               121.52015
   89 Torsion                  1     2     5     6        -119.58785
   90 Torsion                  1     2     5     7          60.32654
   91 Torsion                  2     5     7     8           2.23392
   92 Torsion                  2     5     7     9         177.38146
   93 Torsion                  3     2     5     6           0.20697
   94 Torsion                  3     2     5     7        -179.87864
   95 Torsion                  4     2     5     6         119.84229
   96 Torsion                  4     2     5     7         -60.24332
   97 Torsion                  5     7     9    10         -36.03252
   98 Torsion                  5     7     9    11          82.23841
   99 Torsion                  5     7     9    19        -154.45092
  100 Torsion                  6     5     7     8        -177.85462
  101 Torsion                  6     5     7     9          -2.70708
  102 Torsion                  7     9    11    12         -53.77307
  103 Torsion                  7     9    11    13          64.79779
  104 Torsion                  7     9    11    14        -173.58437
  105 Torsion                  7     9    19    20         -17.70038
  106 Torsion                  7     9    19    21         163.92378
  107 Torsion                  8     7     9    10         139.21497
  108 Torsion                  8     7     9    11        -102.51410
  109 Torsion                  8     7     9    19          20.79658
  110 Torsion                  9    11    14    15          27.31648
  111 Torsion                  9    11    14    16        -150.33070
  112 Torsion                  9    19    21    22           3.39275
  113 Torsion                  9    19    21    23         167.83924
  114 Torsion                 10     9    11    12          64.59034
  115 Torsion                 10     9    11    13        -176.83880
  116 Torsion                 10     9    11    14         -55.22097
  117 Torsion                 10     9    19    20        -136.60100
  118 Torsion                 10     9    19    21          45.02316
  119 Torsion                 11     9    19    20         103.74662
  120 Torsion                 11     9    19    21         -74.62922
  121 Torsion                 11    14    16    17         175.02865
  122 Torsion                 11    14    16    18           3.04217
  123 Torsion                 12    11     9    19        -176.13562
  124 Torsion                 12    11    14    15         -93.74344
  125 Torsion                 12    11    14    16          88.60938
  126 Torsion                 13    11     9    19         -57.56476
  127 Torsion                 13    11    14    15         148.84263
  128 Torsion                 13    11    14    16         -28.80455
  129 Torsion                 14    11     9    19          64.05307
  130 Torsion                 15    14    16    17          -2.68659
  131 Torsion                 15    14    16    18        -174.67307
  132 Torsion                 19    21    23    24          53.33648
  133 Torsion                 19    21    23    25         170.90690
  134 Torsion                 19    21    23    30         -65.38422
  135 Torsion                 20    19    21    22        -174.95965
  136 Torsion                 20    19    21    23         -10.51316
  137 Torsion                 21    23    25    26         -57.66865
  138 Torsion                 21    23    25    27          61.36170
  139 Torsion                 21    23    25    28        -177.54105
  140 Torsion                 21    23    30    31         -43.37947
  141 Torsion                 21    23    30    32         138.31516
  142 Torsion                 22    21    23    24        -142.31773
  143 Torsion                 22    21    23    25         -24.74731
  144 Torsion                 22    21    23    30          98.96157
  145 Torsion                 23    25    28    29         -76.63859
  146 Torsion                 23    30    32    33          -1.43536
  147 Torsion                 23    30    32    34        -179.46454
  148 Torsion                 24    23    25    26          59.98628
  149 Torsion                 24    23    25    27         179.01662
  150 Torsion                 24    23    25    28         -59.88613
  151 Torsion                 24    23    30    31        -162.40237
  152 Torsion                 24    23    30    32          19.29226
  153 Torsion                 25    23    30    31          77.90276
  154 Torsion                 25    23    30    32        -100.40261
  155 Torsion                 26    25    23    30         179.46552
  156 Torsion                 26    25    28    29         163.34816
  157 Torsion                 27    25    23    30         -61.50414
  158 Torsion                 27    25    28    29          44.52541
  159 Torsion                 28    25    23    30          59.59311
  160 Torsion                 31    30    32    33        -179.75557
  161 Torsion                 31    30    32    34           2.21526


            XYZ format geometry
            -------------------
    34
 geometry
 H                     1.72835041    -5.24874255     1.31364764
 C                     1.85348925    -5.15621008     0.23701446
 H                     1.68820512    -6.12298795    -0.23536538
 H                     2.85769062    -4.80439262     0.00610306
 C                     0.84324506    -4.17016835    -0.30178921
 O                     0.01855374    -4.52630434    -1.13186956
 N                     0.91069863    -2.92967828     0.17567115
 H                     1.64122598    -2.70495080     0.83509995
 C                     0.06124215    -1.81675488    -0.25627582
 H                    -0.12760516    -1.91277223    -1.32858891
 C                    -1.28733200    -1.89911476     0.49288745
 H                    -1.72306334    -2.88767080     0.35176283
 H                    -1.11050393    -1.74758589     1.55751876
 C                    -2.30709804    -0.88033503     0.00755861
 O                    -2.29507880    -0.43852146    -1.12951188
 N                    -3.19586424    -0.43569436     0.86139308
 H                    -3.80265986     0.29111086     0.52843324
 H                    -3.17341060    -0.72551746     1.81971370
 C                     0.77452620    -0.47042162    -0.01572307
 O                     1.73362643    -0.39985531     0.75357735
 N                     0.29372472     0.60451194    -0.64174286
 H                    -0.54544049     0.47951725    -1.19728140
 C                     0.69788568     1.96929768    -0.31465446
 H                     1.78652500     2.02925511    -0.35478599
 C                     0.11890362     2.90929182    -1.38167077
 H                     0.47650689     2.59769703    -2.36467463
 H                    -0.97155588     2.85139682    -1.37039116
 S                     0.64028019     4.62260163    -1.08253709
 H                    -0.20106536     4.87864110    -0.07229333
 C                     0.24860669     2.35172172     1.11091779
 O                    -0.87178467     2.06663363     1.52417797
 N                     1.09379618     3.03050922     1.87480276
 H                     2.01043203     3.26625721     1.53249498
 H                     0.80205333     3.27211982     2.80775047

 ==============================================================================
                                internuclear distances
 ------------------------------------------------------------------------------
       center one      |      center two      | atomic units |  angstroms
 ------------------------------------------------------------------------------
    2 C                |   1 H                |     2.05569  |     1.08782
    3 H                |   2 C                |     2.05722  |     1.08863
    4 H                |   2 C                |     2.05756  |     1.08881
    5 C                |   2 C                |     2.85541  |     1.51102
    6 O                |   5 C                |     2.31133  |     1.22310
    7 N                |   5 C                |     2.51506  |     1.33091
    8 H                |   7 N                |     1.90761  |     1.00946
    9 C                |   7 N                |     2.76879  |     1.46518
   10 H                |   9 C                |     2.06555  |     1.09304
   11 C                |   9 C                |     2.91942  |     1.54489
   12 H                |  11 C                |     2.05887  |     1.08950
   13 H                |  11 C                |     2.05943  |     1.08980
   14 C                |  11 C                |     2.87423  |     1.52098
   15 O                |  14 C                |     2.30537  |     1.21995
   16 N                |  14 C                |     2.47593  |     1.31021
   17 H                |  16 N                |     1.89662  |     1.00365
   18 H                |  16 N                |     1.89245  |     1.00144
   19 C                |   9 C                |     2.91487  |     1.54248
   20 O                |  19 C                |     2.32726  |     1.23153
   21 N                |  19 C                |     2.52018  |     1.33362
   22 H                |  21 N                |     1.91641  |     1.01412
   23 C                |  21 N                |     2.75989  |     1.46047
   24 H                |  23 C                |     2.06174  |     1.09103
   25 C                |  23 C                |     2.90141  |     1.53536
   26 H                |  25 C                |     2.06255  |     1.09145
   27 H                |  25 C                |     2.06368  |     1.09205
   28 S                |  25 C                |     3.43116  |     1.81569
   29 H                |  28 S                |     2.53111  |     1.33941
   30 C                |  23 C                |     2.91555  |     1.54284
   31 O                |  30 C                |     2.32008  |     1.22774
   32 N                |  30 C                |     2.50602  |     1.32613
   33 H                |  32 N                |     1.90194  |     1.00647
   34 H                |  32 N                |     1.90280  |     1.00692
 ------------------------------------------------------------------------------
                         number of included internuclear distances:         33
 ==============================================================================



 ==============================================================================
                                 internuclear angles
 ------------------------------------------------------------------------------
        center 1       |       center 2       |       center 3       |  degrees
 ------------------------------------------------------------------------------
    1 H                |   2 C                |   3 H                |   109.66
    1 H                |   2 C                |   4 H                |   110.09
    1 H                |   2 C                |   5 C                |   109.36
    3 H                |   2 C                |   4 H                |   109.57
    3 H                |   2 C                |   5 C                |   108.86
    4 H                |   2 C                |   5 C                |   109.28
    2 C                |   5 C                |   6 O                |   120.18
    2 C                |   5 C                |   7 N                |   116.51
    6 O                |   5 C                |   7 N                |   123.30
    5 C                |   7 N                |   8 H                |   118.59
    5 C                |   7 N                |   9 C                |   124.95
    8 H                |   7 N                |   9 C                |   116.30
    7 N                |   9 C                |  10 H                |   108.82
    7 N                |   9 C                |  11 C                |   108.82
    7 N                |   9 C                |  19 C                |   110.42
   10 H                |   9 C                |  11 C                |   108.68
   10 H                |   9 C                |  19 C                |   108.03
   11 C                |   9 C                |  19 C                |   112.00
    9 C                |  11 C                |  12 H                |   109.55
    9 C                |  11 C                |  13 H                |   108.95
    9 C                |  11 C                |  14 C                |   113.25
   12 H                |  11 C                |  13 H                |   108.52
   12 H                |  11 C                |  14 C                |   107.35
   13 H                |  11 C                |  14 C                |   109.11
   11 C                |  14 C                |  15 O                |   122.23
   11 C                |  14 C                |  16 N                |   118.31
   15 O                |  14 C                |  16 N                |   119.42
   14 C                |  16 N                |  17 H                |   116.08
   14 C                |  16 N                |  18 H                |   120.68
   17 H                |  16 N                |  18 H                |   122.72
    9 C                |  19 C                |  20 O                |   120.50
    9 C                |  19 C                |  21 N                |   117.62
   20 O                |  19 C                |  21 N                |   121.86
   19 C                |  21 N                |  22 H                |   117.14
   19 C                |  21 N                |  23 C                |   123.25
   22 H                |  21 N                |  23 C                |   117.83
   21 N                |  23 C                |  24 H                |   108.62
   21 N                |  23 C                |  25 C                |   108.19
   21 N                |  23 C                |  30 C                |   110.98
   24 H                |  23 C                |  25 C                |   108.49
   24 H                |  23 C                |  30 C                |   108.12
   25 C                |  23 C                |  30 C                |   112.37
   23 C                |  25 C                |  26 H                |   109.12
   23 C                |  25 C                |  27 H                |   109.69
   23 C                |  25 C                |  28 S                |   110.79
   26 H                |  25 C                |  27 H                |   108.74
   26 H                |  25 C                |  28 S                |   108.89
   27 H                |  25 C                |  28 S                |   109.58
   25 C                |  28 S                |  29 H                |    97.14
   23 C                |  30 C                |  31 O                |   121.28
   23 C                |  30 C                |  32 N                |   118.26
   31 O                |  30 C                |  32 N                |   120.44
   30 C                |  32 N                |  33 H                |   120.29
   30 C                |  32 N                |  34 H                |   118.16
   33 H                |  32 N                |  34 H                |   121.52
 ------------------------------------------------------------------------------
                            number of included internuclear angles:         55
 ==============================================================================



  library name resolved from: environment
  library file name is: </opt/rit/el9/20230413/app/linux-rhel9-x86_64_v3/gcc-11.2.1/nwchem-7.2.0-oxtctbuhfuzyfaoziquq6bki22grib3g/share/nwchem/libraries/>
  


 Summary of "ao basis" -> "" (cartesian)
 ------------------------------------------------------------------------------
       Tag                 Description            Shells   Functions and Types
 ---------------- ------------------------------  ------  ---------------------
 *                        aug-cc-pvdz                 on all atoms 


                      Basis "ao basis" -> "ao basis" (cartesian)
                      -----
  H (Hydrogen)
  ------------
            Exponent  Coefficients 
       -------------- ---------------------------------------------------------
  1 S  1.30100000E+01  0.019685
  1 S  1.96200000E+00  0.137977
  1 S  4.44600000E-01  0.478148

  2 S  1.22000000E-01  1.000000

  3 S  2.97400000E-02  1.000000

  4 P  7.27000000E-01  1.000000

  5 P  1.41000000E-01  1.000000

  C (Carbon)
  ----------
            Exponent  Coefficients 
       -------------- ---------------------------------------------------------
  1 S  6.66500000E+03  0.000692
  1 S  1.00000000E+03  0.005329
  1 S  2.28000000E+02  0.027077
  1 S  6.47100000E+01  0.101718
  1 S  2.10600000E+01  0.274740
  1 S  7.49500000E+00  0.448564
  1 S  2.79700000E+00  0.285074
  1 S  5.21500000E-01  0.015204

  2 S  6.66500000E+03 -0.000146
  2 S  1.00000000E+03 -0.001154
  2 S  2.28000000E+02 -0.005725
  2 S  6.47100000E+01 -0.023312
  2 S  2.10600000E+01 -0.063955
  2 S  7.49500000E+00 -0.149981
  2 S  2.79700000E+00 -0.127262
  2 S  5.21500000E-01  0.544529

  3 S  1.59600000E-01  1.000000

  4 S  4.69000000E-02  1.000000

  5 P  9.43900000E+00  0.038109
  5 P  2.00200000E+00  0.209480
  5 P  5.45600000E-01  0.508557

  6 P  1.51700000E-01  1.000000

  7 P  4.04100000E-02  1.000000

  8 D  5.50000000E-01  1.000000

  9 D  1.51000000E-01  1.000000

  O (Oxygen)
  ----------
            Exponent  Coefficients 
       -------------- ---------------------------------------------------------
  1 S  1.17200000E+04  0.000710
  1 S  1.75900000E+03  0.005470
  1 S  4.00800000E+02  0.027837
  1 S  1.13700000E+02  0.104800
  1 S  3.70300000E+01  0.283062
  1 S  1.32700000E+01  0.448719
  1 S  5.02500000E+00  0.270952
  1 S  1.01300000E+00  0.015458

  2 S  1.17200000E+04 -0.000160
  2 S  1.75900000E+03 -0.001263
  2 S  4.00800000E+02 -0.006267
  2 S  1.13700000E+02 -0.025716
  2 S  3.70300000E+01 -0.070924
  2 S  1.32700000E+01 -0.165411
  2 S  5.02500000E+00 -0.116955
  2 S  1.01300000E+00  0.557368

  3 S  3.02300000E-01  1.000000

  4 S  7.89600000E-02  1.000000

  5 P  1.77000000E+01  0.043018
  5 P  3.85400000E+00  0.228913
  5 P  1.04600000E+00  0.508728

  6 P  2.75300000E-01  1.000000

  7 P  6.85600000E-02  1.000000

  8 D  1.18500000E+00  1.000000

  9 D  3.32000000E-01  1.000000

  N (Nitrogen)
  ------------
            Exponent  Coefficients 
       -------------- ---------------------------------------------------------
  1 S  9.04600000E+03  0.000700
  1 S  1.35700000E+03  0.005389
  1 S  3.09300000E+02  0.027406
  1 S  8.77300000E+01  0.103207
  1 S  2.85600000E+01  0.278723
  1 S  1.02100000E+01  0.448540
  1 S  3.83800000E+00  0.278238
  1 S  7.46600000E-01  0.015440

  2 S  9.04600000E+03 -0.000153
  2 S  1.35700000E+03 -0.001208
  2 S  3.09300000E+02 -0.005992
  2 S  8.77300000E+01 -0.024544
  2 S  2.85600000E+01 -0.067459
  2 S  1.02100000E+01 -0.158078
  2 S  3.83800000E+00 -0.121831
  2 S  7.46600000E-01  0.549003

  3 S  2.24800000E-01  1.000000

  4 S  6.12400000E-02  1.000000

  5 P  1.35500000E+01  0.039919
  5 P  2.91700000E+00  0.217169
  5 P  7.97300000E-01  0.510319

  6 P  2.18500000E-01  1.000000

  7 P  5.61100000E-02  1.000000

  8 D  8.17000000E-01  1.000000

  9 D  2.30000000E-01  1.000000

  S (Sulphur)
  -----------
            Exponent  Coefficients 
       -------------- ---------------------------------------------------------
  1 S  1.10800000E+05  0.000248
  1 S  1.66100000E+04  0.001920
  1 S  3.78100000E+03  0.009962
  1 S  1.07100000E+03  0.040298
  1 S  3.49800000E+02  0.128604
  1 S  1.26300000E+02  0.303480
  1 S  4.92600000E+01  0.421432
  1 S  2.01600000E+01  0.230781
  1 S  5.72000000E+00  0.017897
  1 S  2.18200000E+00 -0.002975
  1 S  4.32700000E-01  0.000850

  2 S  1.10800000E+05 -0.000069
  2 S  1.66100000E+04 -0.000528
  2 S  3.78100000E+03 -0.002797
  2 S  1.07100000E+03 -0.011265
  2 S  3.49800000E+02 -0.038883
  2 S  1.26300000E+02 -0.099503
  2 S  4.92600000E+01 -0.199740
  2 S  2.01600000E+01 -0.123360
  2 S  5.72000000E+00  0.513194
  2 S  2.18200000E+00  0.607120
  2 S  4.32700000E-01  0.039675

  3 S  1.10800000E+05  0.000020
  3 S  1.66100000E+04  0.000153
  3 S  3.78100000E+03  0.000810
  3 S  1.07100000E+03  0.003290
  3 S  3.49800000E+02  0.011297
  3 S  1.26300000E+02  0.029639
  3 S  4.92600000E+01  0.059985
  3 S  2.01600000E+01  0.041325
  3 S  5.72000000E+00 -0.207474
  3 S  2.18200000E+00 -0.392889
  3 S  4.32700000E-01  0.632840

  4 S  1.57000000E-01  1.000000

  5 S  5.07000000E-02  1.000000

  6 P  3.99700000E+02  0.004475
  6 P  9.41900000E+01  0.034171
  6 P  2.97500000E+01  0.144250
  6 P  1.07700000E+01  0.353928
  6 P  4.11900000E+00  0.459085
  6 P  1.62500000E+00  0.206383
  6 P  4.72600000E-01  0.010214

  7 P  3.99700000E+02 -0.001163
  7 P  9.41900000E+01 -0.008657
  7 P  2.97500000E+01 -0.039089
  7 P  1.07700000E+01 -0.093463
  7 P  4.11900000E+00 -0.147994
  7 P  1.62500000E+00  0.030190
  7 P  4.72600000E-01  0.561573

  8 P  1.40700000E-01  1.000000

  9 P  3.99000000E-02  1.000000

 10 D  4.79000000E-01  1.000000

 11 D  1.52000000E-01  1.000000



 Summary of "ao basis" -> "ao basis" (cartesian)
 ------------------------------------------------------------------------------
       Tag                 Description            Shells   Functions and Types
 ---------------- ------------------------------  ------  ---------------------
 H                        aug-cc-pvdz                5        9   3s2p
 C                        aug-cc-pvdz                9       25   4s3p2d
 O                        aug-cc-pvdz                9       25   4s3p2d
 N                        aug-cc-pvdz                9       25   4s3p2d
 S                        aug-cc-pvdz               11       29   5s4p2d


                                 NWChem SCF Module
                                 -----------------



  ao basis        = "ao basis"
  functions       =   598
  atoms           =    34
  closed shells   =    73
  open shells     =     0
  charge          =   0.00
  wavefunction    = RHF 
  input vectors   = atomic
  output vectors  = ./ASN_CYS_5.movecs
  use symmetry    = F
  symmetry adapt  = F


 Summary of "ao basis" -> "ao basis" (cartesian)
 ------------------------------------------------------------------------------
       Tag                 Description            Shells   Functions and Types
 ---------------- ------------------------------  ------  ---------------------
 H                        aug-cc-pvdz                5        9   3s2p
 C                        aug-cc-pvdz                9       25   4s3p2d
 O                        aug-cc-pvdz                9       25   4s3p2d
 N                        aug-cc-pvdz                9       25   4s3p2d
 S                        aug-cc-pvdz               11       29   5s4p2d



 Forming initial guess at       0.8s


 !! The overlap matrix has   4 vectors deemed linearly dependent with
    eigenvalues:
 2.64D-06 3.71D-06 5.88D-06 7.98D-06


      Superposition of Atomic Density Guess
      -------------------------------------

 Sum of atomic energies:       -1260.74949013

      Non-variational initial energy
      ------------------------------

 Total energy =   -1271.879330
 1-e energy   =   -4772.102677
 2-e energy   =    1967.667050
 HOMO         =      -0.290272
 LUMO         =       0.008229


 Starting SCF solution at     228.6s



 ----------------------------------------------
         Quadratically convergent ROHF

 Convergence threshold     :          1.000E-04
 Maximum no. of iterations :           30
 Final Fock-matrix accuracy:          1.000E-10
 ----------------------------------------------


              iter       energy          gnorm     gmax       time
             ----- ------------------- --------- --------- --------
                 1    -1264.6803086739  2.67D+00  1.47D-01    479.9
                 2    -1265.0599744015  8.64D-01  4.45D-02    988.5
                 3    -1265.1265305468  7.04D-02  3.81D-03   1688.4
                 4    -1265.1273091332  4.15D-03  3.50D-04   2624.5
                 5    -1265.1273124622  7.51D-06  4.25D-07   4234.4


       Final RHF  results 
       ------------------ 

         Total SCF energy =  -1265.127312462184
      One-electron energy =  -4784.377639326387
      Two-electron energy =   1986.694030153406
 Nuclear repulsion energy =   1532.556296710797

        Time for solution =   4007.3s


             Final eigenvalues
             -----------------

              1      
    1  -91.9727
    2  -20.5413
    3  -20.5345
    4  -20.5316
    5  -20.5197
    6  -15.6047
    7  -15.6014
    8  -15.6006
    9  -15.5955
   10  -11.3707
   11  -11.3677
   12  -11.3650
   13  -11.3515
   14  -11.3109
   15  -11.3060
   16  -11.2946
   17  -11.2636
   18  -11.2398
   19   -8.9740
   20   -6.6563
   21   -6.6551
   22   -6.6529
   23   -1.4068
   24   -1.4010
   25   -1.3920
   26   -1.3813
   27   -1.2544
   28   -1.2438
   29   -1.2352
   30   -1.2316
   31   -1.1005
   32   -1.0710
   33   -1.0008
   34   -0.9856
   35   -0.9258
   36   -0.8819
   37   -0.8251
   38   -0.8109
   39   -0.7980
   40   -0.7828
   41   -0.7577
   42   -0.7441
   43   -0.7226
   44   -0.7071
   45   -0.6930
   46   -0.6685
   47   -0.6588
   48   -0.6506
   49   -0.6406
   50   -0.6337
   51   -0.6249
   52   -0.6062
   53   -0.5999
   54   -0.5948
   55   -0.5806
   56   -0.5693
   57   -0.5647
   58   -0.5523
   59   -0.5500
   60   -0.5428
   61   -0.5315
   62   -0.5303
   63   -0.5019
   64   -0.4749
   65   -0.4444
   66   -0.4419
   67   -0.4337
   68   -0.4243
   69   -0.4220
   70   -0.4174
   71   -0.4040
   72   -0.3934
   73   -0.3740
   74    0.0281
   75    0.0349
   76    0.0379
   77    0.0417
   78    0.0497
   79    0.0547
   80    0.0585
   81    0.0592
   82    0.0636
   83    0.0687

                       ROHF Final Molecular Orbital Analysis
                       -------------------------------------

 Vector   23  Occ=2.000000D+00  E=-1.406799D+00
              MO Center= -1.2D+00, -3.4D-01, -2.1D-01, r^2= 4.4D+00
   Bfn.  Coefficient  Atom+Function         Bfn.  Coefficient  Atom+Function  
  ----- ------------  ---------------      ----- ------------  ---------------
   241      0.299651  15 O  s               240      0.281052  15 O  s         
   215      0.200698  14 C  s               334      0.181853  20 O  s         
   333      0.170796  20 O  s         

 Vector   24  Occ=2.000000D+00  E=-1.400999D+00
              MO Center= -3.5D-01,  1.6D-01,  2.7D-01, r^2= 5.5D+00
   Bfn.  Coefficient  Atom+Function         Bfn.  Coefficient  Atom+Function  
  ----- ------------  ---------------      ----- ------------  ---------------
   334      0.247410  20 O  s               333      0.223235  20 O  s         
   241     -0.217822  15 O  s               240     -0.206516  15 O  s         
   533      0.183946  31 O  s               532      0.165047  31 O  s         
   308      0.156331  19 C  s         

 Vector   25  Occ=2.000000D+00  E=-1.391976D+00
              MO Center=  1.2D-01,  1.2D+00,  1.1D+00, r^2= 4.5D+00
   Bfn.  Coefficient  Atom+Function         Bfn.  Coefficient  Atom+Function  
  ----- ------------  ---------------      ----- ------------  ---------------
   533      0.325892  31 O  s               532      0.293622  31 O  s         
   507      0.206013  30 C  s               334     -0.195758  20 O  s         
   333     -0.188146  20 O  s         

 Vector   26  Occ=2.000000D+00  E=-1.381348D+00
              MO Center=  4.1D-01, -3.9D+00, -6.5D-01, r^2= 2.4D+00
   Bfn.  Coefficient  Atom+Function         Bfn.  Coefficient  Atom+Function  
  ----- ------------  ---------------      ----- ------------  ---------------
    79      0.338806   6 O  s                80      0.340054   6 O  s         
    54      0.238726   5 C  s                12      0.167875   2 C  s         

 Vector   27  Occ=2.000000D+00  E=-1.254355D+00
              MO Center=  4.4D-01,  5.9D-01, -3.1D-01, r^2= 2.1D+00
   Bfn.  Coefficient  Atom+Function         Bfn.  Coefficient  Atom+Function  
  ----- ------------  ---------------      ----- ------------  ---------------
   359      0.415328  21 N  s               358      0.334755  21 N  s         
   334     -0.214092  20 O  s               333     -0.175123  20 O  s         
   392      0.154946  23 C  s         

 Vector   28  Occ=2.000000D+00  E=-1.243800D+00
              MO Center=  6.7D-01, -3.0D+00, -5.6D-02, r^2= 1.9D+00
   Bfn.  Coefficient  Atom+Function         Bfn.  Coefficient  Atom+Function  
  ----- ------------  ---------------      ----- ------------  ---------------
   105      0.443994   7 N  s               104      0.339086   7 N  s         
    80     -0.213263   6 O  s                79     -0.184868   6 O  s         
   128      0.150505   8 H  s         

 Vector   29  Occ=2.000000D+00  E=-1.235178D+00
              MO Center= -2.8D+00, -5.2D-01,  4.9D-01, r^2= 1.7D+00
   Bfn.  Coefficient  Atom+Function         Bfn.  Coefficient  Atom+Function  
  ----- ------------  ---------------      ----- ------------  ---------------
   266      0.394763  16 N  s               265      0.363075  16 N  s         
   241     -0.226227  15 O  s               173     -0.198478  11 C  s         
   220      0.199073  14 C  pz              240     -0.189094  15 O  s         
   298      0.167777  18 H  s               289      0.152353  17 H  s         

 Vector   30  Occ=2.000000D+00  E=-1.231570D+00
              MO Center=  7.5D-01,  2.8D+00,  1.7D+00, r^2= 1.5D+00
   Bfn.  Coefficient  Atom+Function         Bfn.  Coefficient  Atom+Function  
  ----- ------------  ---------------      ----- ------------  ---------------
   558      0.379971  32 N  s               557      0.367543  32 N  s         
   533     -0.215923  31 O  s               393     -0.194596  23 C  s         
   510      0.186418  30 C  px              532     -0.181702  31 O  s         
   581      0.169365  33 H  s               590      0.156135  34 H  s         

 Vector   31  Occ=2.000000D+00  E=-1.100462D+00
              MO Center=  3.0D-01,  1.8D+00, -6.6D-01, r^2= 6.3D+00
   Bfn.  Coefficient  Atom+Function         Bfn.  Coefficient  Atom+Function  
  ----- ------------  ---------------      ----- ------------  ---------------
   426     -0.237946  25 C  s               393     -0.228473  23 C  s         
   139      0.217347   9 C  s               433     -0.185510  25 C  py        
   470     -0.185538  28 S  s               392     -0.179892  23 C  s         
   309     -0.159179  19 C  s         

 Vector   32  Occ=2.000000D+00  E=-1.070962D+00
              MO Center= -2.6D-01, -1.1D+00, -8.2D-02, r^2= 8.5D+00
   Bfn.  Coefficient  Atom+Function         Bfn.  Coefficient  Atom+Function  
  ----- ------------  ---------------      ----- ------------  ---------------
   173      0.251081  11 C  s               172      0.236495  11 C  s         
   138      0.196368   9 C  s         

 Vector   33  Occ=2.000000D+00  E=-1.000767D+00
              MO Center=  9.8D-01, -4.2D+00,  2.0D-01, r^2= 5.1D+00
   Bfn.  Coefficient  Atom+Function         Bfn.  Coefficient  Atom+Function  
  ----- ------------  ---------------      ----- ------------  ---------------
    11      0.316813   2 C  s                56     -0.317813   5 C  s         
    13      0.252433   2 C  s                12      0.187414   2 C  s         
   173      0.183365  11 C  s               172      0.155610  11 C  s         

 Vector   34  Occ=2.000000D+00  E=-9.856468D-01
              MO Center=  3.4D-01,  2.2D+00, -3.7D-01, r^2= 7.2D+00
   Bfn.  Coefficient  Atom+Function         Bfn.  Coefficient  Atom+Function  
  ----- ------------  ---------------      ----- ------------  ---------------
   470      0.286178  28 S  s               392     -0.218455  23 C  s         
   400     -0.195544  23 C  pz              471      0.185299  28 S  s         
   433      0.180539  25 C  py              362     -0.151005  21 N  py        

 Vector   35  Occ=2.000000D+00  E=-9.257653D-01
              MO Center= -4.9D-02, -1.4D+00,  5.2D-02, r^2= 9.1D+00
   Bfn.  Coefficient  Atom+Function         Bfn.  Coefficient  Atom+Function  
  ----- ------------  ---------------      ----- ------------  ---------------
   138      0.215076   9 C  s               178      0.186504  11 C  px        

 Vector   36  Occ=2.000000D+00  E=-8.818693D-01
              MO Center=  3.7D-01,  3.0D+00, -3.5D-01, r^2= 4.2D+00
   Bfn.  Coefficient  Atom+Function         Bfn.  Coefficient  Atom+Function  
  ----- ------------  ---------------      ----- ------------  ---------------
   393      0.392667  23 C  s               400      0.332725  23 C  pz        
   471      0.290553  28 S  s               470      0.223918  28 S  s         
   426     -0.218572  25 C  s               515      0.218034  30 C  pz        
   139      0.181921   9 C  s               508     -0.167422  30 C  s         
   397      0.162746  23 C  pz              450     -0.160334  26 H  s         

 Vector   37  Occ=2.000000D+00  E=-8.251452D-01
              MO Center= -5.2D-01,  4.9D-01,  8.7D-02, r^2= 9.0D+00
   Bfn.  Coefficient  Atom+Function         Bfn.  Coefficient  Atom+Function  
  ----- ------------  ---------------      ----- ------------  ---------------
   471      0.188045  28 S  s               362      0.180316  21 N  py        
   308     -0.166241  19 C  s               393     -0.167000  23 C  s         

 Vector   38  Occ=2.000000D+00  E=-8.109295D-01
              MO Center= -8.1D-01, -7.9D-01,  4.0D-01, r^2= 1.1D+01
   Bfn.  Coefficient  Atom+Function         Bfn.  Coefficient  Atom+Function  
  ----- ------------  ---------------      ----- ------------  ---------------
   108      0.189920   7 N  py              270     -0.187441  16 N  pz        
   216      0.165659  14 C  s               298     -0.160652  18 H  s         
   215      0.159157  14 C  s               268      0.159413  16 N  px        

 Vector   39  Occ=2.000000D+00  E=-7.980376D-01
              MO Center=  6.5D-01,  6.0D-01,  4.7D-01, r^2= 8.7D+00
   Bfn.  Coefficient  Atom+Function         Bfn.  Coefficient  Atom+Function  
  ----- ------------  ---------------      ----- ------------  ---------------
   560      0.197315  32 N  px              359     -0.193233  21 N  s         
   382     -0.191203  22 H  s               309      0.185934  19 C  s         
   361      0.167400  21 N  px              581      0.167883  33 H  s         
   128     -0.154637   8 H  s               105     -0.150147   7 N  s         

 Vector   40  Occ=2.000000D+00  E=-7.827893D-01
              MO Center= -1.2D-01, -1.3D+00,  8.6D-02, r^2= 7.1D+00
   Bfn.  Coefficient  Atom+Function         Bfn.  Coefficient  Atom+Function  
  ----- ------------  ---------------      ----- ------------  ---------------
   309      0.343538  19 C  s               105      0.246521   7 N  s         
   144     -0.237137   9 C  px              128      0.222786   8 H  s         
   139     -0.193042   9 C  s               163     -0.187401  10 H  s         
   109      0.178162   7 N  pz              173     -0.177154  11 C  s         
   270      0.164141  16 N  pz               55     -0.160997   5 C  s         

 Vector   41  Occ=2.000000D+00  E=-7.577406D-01
              MO Center= -3.3D-01,  6.2D-01,  6.2D-01, r^2= 9.0D+00
   Bfn.  Coefficient  Atom+Function         Bfn.  Coefficient  Atom+Function  
  ----- ------------  ---------------      ----- ------------  ---------------
   309      0.288815  19 C  s               560     -0.211682  32 N  px        
   581     -0.204518  33 H  s               145     -0.195397   9 C  py        
   400     -0.182903  23 C  pz              361      0.163789  21 N  px        
   270     -0.161763  16 N  pz              139     -0.154784   9 C  s         
   298     -0.152551  18 H  s         

 Vector   42  Occ=2.000000D+00  E=-7.441211D-01
              MO Center= -1.2D+00,  5.6D-01,  8.4D-01, r^2= 9.0D+00
   Bfn.  Coefficient  Atom+Function         Bfn.  Coefficient  Atom+Function  
  ----- ------------  ---------------      ----- ------------  ---------------
   270      0.229086  16 N  pz              298      0.227153  18 H  s         
   289     -0.220985  17 H  s               269     -0.178889  16 N  py        
   581     -0.178783  33 H  s               560     -0.175948  32 N  px        

 Vector   43  Occ=2.000000D+00  E=-7.226088D-01
              MO Center=  4.3D-01, -4.8D-01,  4.7D-01, r^2= 1.2D+01
   Bfn.  Coefficient  Atom+Function         Bfn.  Coefficient  Atom+Function  
  ----- ------------  ---------------      ----- ------------  ---------------
   145      0.221302   9 C  py              142      0.194147   9 C  py        
   562      0.192747  32 N  pz              590      0.190190  34 H  s         
   312     -0.178947  19 C  py        

 Vector   44  Occ=2.000000D+00  E=-7.071435D-01
              MO Center=  2.8D-01,  1.7D+00,  3.0D-01, r^2= 5.9D+00
   Bfn.  Coefficient  Atom+Function         Bfn.  Coefficient  Atom+Function  
  ----- ------------  ---------------      ----- ------------  ---------------
   515      0.218298  30 C  pz              395      0.208504  23 C  px        
   509      0.203050  30 C  s               416      0.185458  24 H  s         
   558     -0.180021  32 N  s               428     -0.170932  25 C  s         
   562     -0.170386  32 N  pz              429      0.153438  25 C  px        
   537      0.153000  31 O  pz              590     -0.153714  34 H  s         

 Vector   45  Occ=2.000000D+00  E=-6.930371D-01
              MO Center= -1.1D+00, -1.2D+00, -3.5D-02, r^2= 6.4D+00
   Bfn.  Coefficient  Atom+Function         Bfn.  Coefficient  Atom+Function  
  ----- ------------  ---------------      ----- ------------  ---------------
   139      0.203345   9 C  s               241     -0.187585  15 O  s         
   177     -0.179499  11 C  pz              205     -0.160179  13 H  s         
   244     -0.158955  15 O  py              220     -0.152194  14 C  pz        

 Vector   46  Occ=2.000000D+00  E=-6.685487D-01
              MO Center=  2.2D-01, -6.9D-01, -2.1D-01, r^2= 1.2D+01
   Bfn.  Coefficient  Atom+Function         Bfn.  Coefficient  Atom+Function  
  ----- ------------  ---------------      ----- ------------  ---------------
   396     -0.194078  23 C  py              508      0.192407  30 C  s         
   362      0.190844  21 N  py              400     -0.184804  23 C  pz        
   399     -0.167559  23 C  py               82      0.156687   6 O  px        
    58     -0.155834   5 C  py              393     -0.155313  23 C  s         

 Vector   47  Occ=2.000000D+00  E=-6.588149D-01
              MO Center=  8.7D-01, -1.6D+00,  1.6D-01, r^2= 8.9D+00
   Bfn.  Coefficient  Atom+Function         Bfn.  Coefficient  Atom+Function  
  ----- ------------  ---------------      ----- ------------  ---------------
   336      0.227561  20 O  px              334      0.211813  20 O  s         
    58     -0.199469   5 C  py               56      0.185535   5 C  s         
   338      0.174333  20 O  pz        

 Vector   48  Occ=2.000000D+00  E=-6.506344D-01
              MO Center= -6.4D-01, -1.2D+00,  2.7D-02, r^2= 7.5D+00
   Bfn.  Coefficient  Atom+Function         Bfn.  Coefficient  Atom+Function  
  ----- ------------  ---------------      ----- ------------  ---------------
   196      0.206721  12 H  s               176     -0.175538  11 C  py        
   175     -0.159598  11 C  px              173      0.158614  11 C  s         

 Vector   49  Occ=2.000000D+00  E=-6.405831D-01
              MO Center= -4.6D-02, -1.0D+00, -4.6D-01, r^2= 1.1D+01
   Bfn.  Coefficient  Atom+Function         Bfn.  Coefficient  Atom+Function  
  ----- ------------  ---------------      ----- ------------  ---------------
   396      0.176921  23 C  py              245      0.165154  15 O  pz        
   362     -0.161050  21 N  py               84      0.157057   6 O  pz        
    80     -0.150688   6 O  s         

 Vector   50  Occ=2.000000D+00  E=-6.337103D-01
              MO Center= -2.0D-01,  1.9D+00,  1.3D-02, r^2= 7.8D+00
   Bfn.  Coefficient  Atom+Function         Bfn.  Coefficient  Atom+Function  
  ----- ------------  ---------------      ----- ------------  ---------------
   535      0.271702  31 O  px              451      0.233766  26 H  s         
   533     -0.216515  31 O  s               393      0.213946  23 C  s         
   429      0.195655  25 C  px              428     -0.192591  25 C  s         
   173      0.177375  11 C  s               459     -0.174414  27 H  s         
   510     -0.172513  30 C  px              139     -0.164928   9 C  s         

 Vector   51  Occ=2.000000D+00  E=-6.248532D-01
              MO Center=  4.9D-01, -3.3D+00,  1.3D-01, r^2= 8.0D+00
   Bfn.  Coefficient  Atom+Function         Bfn.  Coefficient  Atom+Function  
  ----- ------------  ---------------      ----- ------------  ---------------
   139      0.415736   9 C  s               173     -0.388896  11 C  s         
    59      0.197391   5 C  pz               13     -0.185958   2 C  s         
   217      0.185512  14 C  s                16      0.179392   2 C  pz        
    44     -0.171059   4 H  s                56      0.170698   5 C  s         
   109      0.166856   7 N  pz                1      0.165891   1 H  s         

 Vector   52  Occ=2.000000D+00  E=-6.062201D-01
              MO Center= -2.6D-01,  1.1D+00,  6.4D-01, r^2= 7.4D+00
   Bfn.  Coefficient  Atom+Function         Bfn.  Coefficient  Atom+Function  
  ----- ------------  ---------------      ----- ------------  ---------------
   393      0.277236  23 C  s               508     -0.273774  30 C  s         
   510      0.224924  30 C  px              535     -0.215637  31 O  px        
   536     -0.187929  31 O  py              417     -0.167062  24 H  s         
   533      0.156370  31 O  s         

 Vector   53  Occ=2.000000D+00  E=-5.999419D-01
              MO Center= -8.9D-01, -1.1D+00, -1.4D-02, r^2= 7.2D+00
   Bfn.  Coefficient  Atom+Function         Bfn.  Coefficient  Atom+Function  
  ----- ------------  ---------------      ----- ------------  ---------------
   220      0.209194  14 C  pz              243      0.191806  15 O  px        
   245     -0.178667  15 O  pz              338     -0.173940  20 O  pz        
   311      0.166599  19 C  px              218      0.164865  14 C  px        
   269      0.154929  16 N  py        

 Vector   54  Occ=2.000000D+00  E=-5.948499D-01
              MO Center=  3.9D-01, -1.5D+00, -1.1D-02, r^2= 1.2D+01
   Bfn.  Coefficient  Atom+Function         Bfn.  Coefficient  Atom+Function  
  ----- ------------  ---------------      ----- ------------  ---------------
   173      0.194095  11 C  s               336      0.173499  20 O  px        
    16      0.168622   2 C  pz                1      0.167668   1 H  s         
    57     -0.165840   5 C  px               55      0.154796   5 C  s         
    13      0.153242   2 C  s         

 Vector   55  Occ=2.000000D+00  E=-5.805925D-01
              MO Center= -3.5D-01, -6.9D-01,  3.5D-02, r^2= 9.4D+00
   Bfn.  Coefficient  Atom+Function         Bfn.  Coefficient  Atom+Function  
  ----- ------------  ---------------      ----- ------------  ---------------
   173      0.246183  11 C  s               245      0.222452  15 O  pz        
   139     -0.195653   9 C  s               400      0.183029  23 C  pz        
   338     -0.162013  20 O  pz              219      0.151203  14 C  py        

 Vector   56  Occ=2.000000D+00  E=-5.692668D-01
              MO Center=  3.2D-01,  1.2D+00,  2.3D-01, r^2= 1.0D+01
   Bfn.  Coefficient  Atom+Function         Bfn.  Coefficient  Atom+Function  
  ----- ------------  ---------------      ----- ------------  ---------------
   535      0.200051  31 O  px              217     -0.181096  14 C  s         
   395      0.177240  23 C  px              416      0.177696  24 H  s         
   417      0.171153  24 H  s         

 Vector   57  Occ=2.000000D+00  E=-5.647154D-01
              MO Center=  6.2D-01, -3.9D+00, -2.1D-01, r^2= 6.9D+00
   Bfn.  Coefficient  Atom+Function         Bfn.  Coefficient  Atom+Function  
  ----- ------------  ---------------      ----- ------------  ---------------
    36      0.262812   3 H  s                35      0.201928   3 H  s         
    84     -0.193343   6 O  pz               83     -0.180401   6 O  py        
    14     -0.179006   2 C  px               44     -0.165580   4 H  s         
    57      0.160654   5 C  px        

 Vector   58  Occ=2.000000D+00  E=-5.523294D-01
              MO Center=  5.6D-01, -2.0D+00, -2.2D-01, r^2= 1.7D+01
   Bfn.  Coefficient  Atom+Function         Bfn.  Coefficient  Atom+Function  
  ----- ------------  ---------------      ----- ------------  ---------------
    35     -0.261728   3 H  s                15      0.254678   2 C  py        
    36     -0.171271   3 H  s               450     -0.150665  26 H  s         

 Vector   59  Occ=2.000000D+00  E=-5.500478D-01
              MO Center=  3.7D-01,  9.3D-01, -2.5D-01, r^2= 1.2D+01
   Bfn.  Coefficient  Atom+Function         Bfn.  Coefficient  Atom+Function  
  ----- ------------  ---------------      ----- ------------  ---------------
   431      0.247920  25 C  pz              450     -0.185190  26 H  s         
   480     -0.153853  28 S  py              397     -0.150053  23 C  pz        
   434      0.150121  25 C  pz        

 Vector   60  Occ=2.000000D+00  E=-5.427827D-01
              MO Center=  5.2D-01,  7.8D-01, -3.8D-01, r^2= 1.4D+01
   Bfn.  Coefficient  Atom+Function         Bfn.  Coefficient  Atom+Function  
  ----- ------------  ---------------      ----- ------------  ---------------
   430      0.210921  25 C  py              460      0.187126  27 H  s         
   497     -0.187725  29 H  s               163     -0.178071  10 H  s         
   478     -0.177410  28 S  pz        

 Vector   61  Occ=2.000000D+00  E=-5.314538D-01
              MO Center=  2.2D-03,  1.9D-01,  1.8D-01, r^2= 8.9D+00
   Bfn.  Coefficient  Atom+Function         Bfn.  Coefficient  Atom+Function  
  ----- ------------  ---------------      ----- ------------  ---------------
   427      0.269467  25 C  s               393     -0.225277  23 C  s         
   433     -0.192399  25 C  py              338     -0.183911  20 O  pz        
   196     -0.170300  12 H  s               536     -0.167723  31 O  py        
   197     -0.156556  12 H  s               395     -0.156182  23 C  px        
   417     -0.155751  24 H  s               460     -0.153865  27 H  s         

 Vector   62  Occ=2.000000D+00  E=-5.302728D-01
              MO Center= -2.2D-01, -1.1D+00,  6.9D-02, r^2= 8.8D+00
   Bfn.  Coefficient  Atom+Function         Bfn.  Coefficient  Atom+Function  
  ----- ------------  ---------------      ----- ------------  ---------------
   163      0.258394  10 H  s               139     -0.201534   9 C  s         
   206      0.185055  13 H  s               217      0.172129  14 C  s         
   197     -0.168603  12 H  s               336     -0.155103  20 O  px        
   205      0.154108  13 H  s         

 Vector   63  Occ=2.000000D+00  E=-5.019239D-01
              MO Center=  3.5D-01, -3.1D+00, -2.0D-01, r^2= 5.8D+00
   Bfn.  Coefficient  Atom+Function         Bfn.  Coefficient  Atom+Function  
  ----- ------------  ---------------      ----- ------------  ---------------
    84      0.232356   6 O  pz              143     -0.206397   9 C  pz        
    82     -0.181575   6 O  px              177      0.177378  11 C  pz        
   162      0.174763  10 H  s                87      0.168132   6 O  pz        
   144      0.164157   9 C  px        

 Vector   64  Occ=2.000000D+00  E=-4.748530D-01
              MO Center=  6.0D-01,  4.0D+00, -1.0D+00, r^2= 3.9D+00
   Bfn.  Coefficient  Atom+Function         Bfn.  Coefficient  Atom+Function  
  ----- ------------  ---------------      ----- ------------  ---------------
   471      0.384274  28 S  s               476      0.269285  28 S  px        
   477      0.269931  28 S  py              433     -0.249847  25 C  py        
   479      0.206300  28 S  px              430     -0.202764  25 C  py        
   393     -0.183393  23 C  s               497     -0.176142  29 H  s         
   478     -0.161559  28 S  pz              470      0.152747  28 S  s         

 Vector   65  Occ=2.000000D+00  E=-4.444464D-01
              MO Center= -4.2D-03,  6.2D-01,  5.6D-01, r^2= 6.0D+00
   Bfn.  Coefficient  Atom+Function         Bfn.  Coefficient  Atom+Function  
  ----- ------------  ---------------      ----- ------------  ---------------
   537      0.319519  31 O  pz              540      0.243206  31 O  pz        
   337      0.211618  20 O  py              338     -0.193893  20 O  pz        
   340      0.175350  20 O  py              515     -0.168210  30 C  pz        
   336      0.160406  20 O  px              361     -0.158169  21 N  px        
   536      0.158570  31 O  py              341     -0.154552  20 O  pz        

 Vector   66  Occ=2.000000D+00  E=-4.419344D-01
              MO Center= -9.1D-01, -1.8D-01, -4.4D-02, r^2= 6.9D+00
   Bfn.  Coefficient  Atom+Function         Bfn.  Coefficient  Atom+Function  
  ----- ------------  ---------------      ----- ------------  ---------------
   243      0.330939  15 O  px              246      0.269129  15 O  px        
   337     -0.251505  20 O  py              537      0.237136  31 O  pz        
   244     -0.207882  15 O  py              340     -0.203533  20 O  py        
   540      0.185182  31 O  pz               56     -0.175957   5 C  s         
   247     -0.159941  15 O  py        

 Vector   67  Occ=2.000000D+00  E=-4.337480D-01
              MO Center= -4.8D-01, -1.6D-01,  4.4D-02, r^2= 6.6D+00
   Bfn.  Coefficient  Atom+Function         Bfn.  Coefficient  Atom+Function  
  ----- ------------  ---------------      ----- ------------  ---------------
   337      0.329966  20 O  py              243      0.325500  15 O  px        
   173      0.282864  11 C  s               246      0.267973  15 O  px        
   340      0.267798  20 O  py              139     -0.213971   9 C  s         
   537     -0.190113  31 O  pz              206     -0.173833  13 H  s         

 Vector   68  Occ=2.000000D+00  E=-4.242947D-01
              MO Center=  2.3D-01,  2.5D+00,  1.4D+00, r^2= 3.3D+00
   Bfn.  Coefficient  Atom+Function         Bfn.  Coefficient  Atom+Function  
  ----- ------------  ---------------      ----- ------------  ---------------
   536      0.373973  31 O  py              561     -0.327758  32 N  py        
   539      0.306000  31 O  py              564     -0.300430  32 N  py        
   560      0.181114  32 N  px              217     -0.168244  14 C  s         
   562      0.160181  32 N  pz        

 Vector   69  Occ=2.000000D+00  E=-4.220223D-01
              MO Center= -2.1D+00, -2.1D-01,  2.0D-01, r^2= 4.8D+00
   Bfn.  Coefficient  Atom+Function         Bfn.  Coefficient  Atom+Function  
  ----- ------------  ---------------      ----- ------------  ---------------
   244      0.288576  15 O  py              269     -0.288051  16 N  py        
   268     -0.277421  16 N  px              267      0.269140  16 N  s         
   271     -0.266275  16 N  px              272     -0.235527  16 N  py        
   247      0.234005  15 O  py              217     -0.215204  14 C  s         
   337     -0.172283  20 O  py              243      0.156957  15 O  px        

 Vector   70  Occ=2.000000D+00  E=-4.173902D-01
              MO Center=  3.8D-01, -4.4D+00, -7.6D-01, r^2= 2.4D+00
   Bfn.  Coefficient  Atom+Function         Bfn.  Coefficient  Atom+Function  
  ----- ------------  ---------------      ----- ------------  ---------------
    83     -0.486289   6 O  py               13      0.461235   2 C  s         
    86     -0.391350   6 O  py               56     -0.280862   5 C  s         
    82      0.256862   6 O  px              105      0.253854   7 N  s         
   139      0.252344   9 C  s               145      0.246504   9 C  py        
    64      0.233298   5 C  py               85      0.197126   6 O  px        

 Vector   71  Occ=2.000000D+00  E=-4.040024D-01
              MO Center=  2.8D-01,  1.3D-01,  6.7D-02, r^2= 6.4D+00
   Bfn.  Coefficient  Atom+Function         Bfn.  Coefficient  Atom+Function  
  ----- ------------  ---------------      ----- ------------  ---------------
   363      0.269774  21 N  pz              366      0.254149  21 N  pz        
   361     -0.223111  21 N  px              338     -0.195380  20 O  pz        
   364     -0.194424  21 N  px              139     -0.192540   9 C  s         
   537     -0.192637  31 O  pz              309      0.167405  19 C  s         
   360     -0.164146  21 N  s               145     -0.163173   9 C  py        

 Vector   72  Occ=2.000000D+00  E=-3.934092D-01
              MO Center=  3.8D-01, -2.6D+00, -2.4D-01, r^2= 5.3D+00
   Bfn.  Coefficient  Atom+Function         Bfn.  Coefficient  Atom+Function  
  ----- ------------  ---------------      ----- ------------  ---------------
   109      0.302904   7 N  pz              112      0.268832   7 N  pz        
   107     -0.262788   7 N  px              139      0.255369   9 C  s         
   110     -0.245155   7 N  px               84     -0.231163   6 O  pz        
    82      0.195248   6 O  px               87     -0.176231   6 O  pz        
   178     -0.162543  11 C  px              173     -0.155195  11 C  s         

 Vector   73  Occ=2.000000D+00  E=-3.740255D-01
              MO Center=  5.8D-01,  4.3D+00, -9.2D-01, r^2= 2.7D+00
   Bfn.  Coefficient  Atom+Function         Bfn.  Coefficient  Atom+Function  
  ----- ------------  ---------------      ----- ------------  ---------------
   476      0.351828  28 S  px              479      0.347299  28 S  px        
   478      0.341650  28 S  pz              481      0.325880  28 S  pz        
   399     -0.228026  23 C  py              427      0.221292  25 C  s         
   477     -0.171749  28 S  py              393     -0.160728  23 C  s         

 Vector   74  Occ=0.000000D+00  E= 2.808491D-02
              MO Center= -2.1D-01,  1.6D+00,  2.9D+00, r^2= 3.1D+01
   Bfn.  Coefficient  Atom+Function         Bfn.  Coefficient  Atom+Function  
  ----- ------------  ---------------      ----- ------------  ---------------
   509      3.981793  30 C  s               217      3.651299  14 C  s         
   559     -3.251004  32 N  s               148     -3.204225   9 C  py        
    56      2.993227   5 C  s               267     -2.779627  16 N  s         
    13     -2.550505   2 C  s               592     -1.854427  34 H  s         
   106     -1.788130   7 N  s                64     -1.769501   5 C  py        

 Vector   75  Occ=0.000000D+00  E= 3.493300D-02
              MO Center= -2.3D-01,  4.7D-01,  2.6D+00, r^2= 3.9D+01
   Bfn.  Coefficient  Atom+Function         Bfn.  Coefficient  Atom+Function  
  ----- ------------  ---------------      ----- ------------  ---------------
   217      3.732173  14 C  s               559      3.523432  32 N  s         
   509     -2.233363  30 C  s               267     -2.131839  16 N  s         
   517     -2.056912  30 C  py              148     -1.671276   9 C  py        
   518     -1.631427  30 C  pz               56      1.602438   5 C  s         
   318     -1.597918  19 C  py              516     -1.560675  30 C  px        

 Vector   76  Occ=0.000000D+00  E= 3.789453D-02
              MO Center=  9.8D-01, -2.7D+00,  9.6D-01, r^2= 4.0D+01
   Bfn.  Coefficient  Atom+Function         Bfn.  Coefficient  Atom+Function  
  ----- ------------  ---------------      ----- ------------  ---------------
   148      4.153952   9 C  py               64      3.555553   5 C  py        
   509     -3.347249  30 C  s               147     -2.645704   9 C  px        
    63     -2.249779   5 C  px               46      1.924498   4 H  s         
    12     -1.809734   2 C  s               181     -1.810235  11 C  px        
   106      1.705135   7 N  s               418      1.640488  24 H  s         

 Vector   77  Occ=0.000000D+00  E= 4.165004D-02
              MO Center=  4.5D-01,  1.8D+00, -1.8D+00, r^2= 3.0D+01
   Bfn.  Coefficient  Atom+Function         Bfn.  Coefficient  Atom+Function  
  ----- ------------  ---------------      ----- ------------  ---------------
   452      3.371068  26 H  s               318     -2.433342  19 C  py        
   509     -2.400555  30 C  s               403      2.350523  23 C  pz        
   518      2.199661  30 C  pz              437      2.063772  25 C  pz        
   428      1.863050  25 C  s               402     -1.805241  23 C  py        
   164      1.546332  10 H  s               360      1.487311  21 N  s         

 Vector   78  Occ=0.000000D+00  E= 4.974583D-02
              MO Center= -5.7D-02,  5.3D-01,  4.3D-01, r^2= 4.7D+01
   Bfn.  Coefficient  Atom+Function         Bfn.  Coefficient  Atom+Function  
  ----- ------------  ---------------      ----- ------------  ---------------
    56      4.057378   5 C  s               174     -2.809218  11 C  s         
    64      2.783516   5 C  py              147     -2.645078   9 C  px        
   148      2.657937   9 C  py              499      2.262593  29 H  s         
   418     -2.158564  24 H  s                12     -1.938957   2 C  s         
    37      1.800653   3 H  s               401      1.614420  23 C  px        

 Vector   79  Occ=0.000000D+00  E= 5.466462D-02
              MO Center=  8.1D-01, -8.6D-01,  1.0D-01, r^2= 4.5D+01
   Bfn.  Coefficient  Atom+Function         Bfn.  Coefficient  Atom+Function  
  ----- ------------  ---------------      ----- ------------  ---------------
    46      3.155726   4 H  s               418      3.166304  24 H  s         
     3     -2.825174   1 H  s               148      2.828028   9 C  py        
   401     -2.538559  23 C  px              452     -2.550607  26 H  s         
   360     -2.455919  21 N  s               174     -2.009065  11 C  s         
    56      1.948947   5 C  s               207     -1.953303  13 H  s         

 Vector   80  Occ=0.000000D+00  E= 5.848955D-02
              MO Center=  1.0D+00,  1.5D+00,  1.3D+00, r^2= 3.8D+01
   Bfn.  Coefficient  Atom+Function         Bfn.  Coefficient  Atom+Function  
  ----- ------------  ---------------      ----- ------------  ---------------
   198      3.360630  12 H  s               583      2.932956  33 H  s         
   592     -2.761367  34 H  s                56      2.501433   5 C  s         
    13     -2.315837   2 C  s               207     -2.244249  13 H  s         
   509      2.194331  30 C  s               164     -2.020973  10 H  s         
   472     -1.863542  28 S  s               403     -1.751808  23 C  pz        

 Vector   81  Occ=0.000000D+00  E= 5.920391D-02
              MO Center=  6.1D-01, -3.1D+00,  2.7D-01, r^2= 4.2D+01
   Bfn.  Coefficient  Atom+Function         Bfn.  Coefficient  Atom+Function  
  ----- ------------  ---------------      ----- ------------  ---------------
    37      3.829314   3 H  s               148     -3.694257   9 C  py        
   130     -3.043439   8 H  s               106     -2.916177   7 N  s         
   198      2.879030  12 H  s               418     -2.307148  24 H  s         
   360      2.270856  21 N  s               401      1.890625  23 C  px        
    13     -1.875268   2 C  s               164      1.817422  10 H  s         

 Vector   82  Occ=0.000000D+00  E= 6.363846D-02
              MO Center= -8.3D-01,  1.9D+00,  5.4D-01, r^2= 4.1D+01
   Bfn.  Coefficient  Atom+Function         Bfn.  Coefficient  Atom+Function  
  ----- ------------  ---------------      ----- ------------  ---------------
   217      4.135796  14 C  s               499      2.769229  29 H  s         
   461     -2.322164  27 H  s               291     -2.139264  17 H  s         
     3     -2.120207   1 H  s               300      2.045182  18 H  s         
   583     -2.024056  33 H  s                46      1.957383   4 H  s         
   418      1.789052  24 H  s               472     -1.640243  28 S  s         

 Vector   83  Occ=0.000000D+00  E= 6.872241D-02
              MO Center= -6.5D-01, -3.1D+00, -2.8D-01, r^2= 3.8D+01
   Bfn.  Coefficient  Atom+Function         Bfn.  Coefficient  Atom+Function  
  ----- ------------  ---------------      ----- ------------  ---------------
   148      7.072905   9 C  py               56      6.252690   5 C  s         
   198     -5.635752  12 H  s                64      5.406269   5 C  py        
   509     -3.913826  30 C  s                13      3.491780   2 C  s         
    63     -3.477880   5 C  px               37      2.968743   3 H  s         
   106     -2.947011   7 N  s               182     -2.629646  11 C  py        

 Vector   84  Occ=0.000000D+00  E= 7.517309D-02
              MO Center=  4.3D-01,  1.1D+00,  1.8D-01, r^2= 4.2D+01
   Bfn.  Coefficient  Atom+Function         Bfn.  Coefficient  Atom+Function  
  ----- ------------  ---------------      ----- ------------  ---------------
   418      5.840194  24 H  s               461     -4.305086  27 H  s         
   583     -3.920254  33 H  s               318     -3.647492  19 C  py        
   207     -3.232585  13 H  s                13     -2.507961   2 C  s         
     3      2.452239   1 H  s                64     -2.039615   5 C  py        
   592      2.002958  34 H  s                46     -1.887342   4 H  s         

 Vector   85  Occ=0.000000D+00  E= 7.661856D-02
              MO Center=  8.5D-01, -4.1D-01,  1.4D-02, r^2= 4.7D+01
   Bfn.  Coefficient  Atom+Function         Bfn.  Coefficient  Atom+Function  
  ----- ------------  ---------------      ----- ------------  ---------------
   418      6.291707  24 H  s               452     -4.459928  26 H  s         
   461      4.279887  27 H  s               401     -4.004261  23 C  px        
   207      3.826893  13 H  s                37      3.550594   3 H  s         
   148      3.547833   9 C  py              509     -3.472174  30 C  s         
   428     -3.298423  25 C  s                13      3.236480   2 C  s         

 Vector   86  Occ=0.000000D+00  E= 8.119712D-02
              MO Center= -1.5D-02, -9.8D-01, -1.4D+00, r^2= 3.6D+01
   Bfn.  Coefficient  Atom+Function         Bfn.  Coefficient  Atom+Function  
  ----- ------------  ---------------      ----- ------------  ---------------
   164      6.812244  10 H  s               149      5.381788   9 C  pz        
   198     -5.333061  12 H  s                56     -4.530215   5 C  s         
   428      4.317581  25 C  s                13      3.220246   2 C  s         
   207      3.145829  13 H  s               181     -2.657233  11 C  px        
   217     -2.488582  14 C  s               418     -2.353397  24 H  s         

 Vector   87  Occ=0.000000D+00  E= 8.849734D-02
              MO Center= -2.4D-01,  3.6D-01,  2.4D-01, r^2= 4.6D+01
   Bfn.  Coefficient  Atom+Function         Bfn.  Coefficient  Atom+Function  
  ----- ------------  ---------------      ----- ------------  ---------------
   318      6.477528  19 C  py               13      4.672729   2 C  s         
   472     -4.651292  28 S  s               461     -3.728447  27 H  s         
   402      3.467137  23 C  py              207      3.358737  13 H  s         
   300     -3.232785  18 H  s               130      3.187578   8 H  s         
   452      3.147594  26 H  s                 3     -3.064888   1 H  s         

 Vector   88  Occ=0.000000D+00  E= 9.476834D-02
              MO Center=  8.4D-01, -2.2D+00,  1.3D+00, r^2= 3.5D+01
   Bfn.  Coefficient  Atom+Function         Bfn.  Coefficient  Atom+Function  
  ----- ------------  ---------------      ----- ------------  ---------------
   217     -9.093811  14 C  s               207      8.538691  13 H  s         
   130     -7.343292   8 H  s               509      4.358048  30 C  s         
    46      4.116862   4 H  s               300     -3.839133  18 H  s         
   318     -3.446404  19 C  py              403     -3.015492  23 C  pz        
   384      2.799908  22 H  s               183     -2.731162  11 C  pz        

 Vector   89  Occ=0.000000D+00  E= 1.014295D-01
              MO Center= -5.0D-01,  2.7D-01, -6.4D-01, r^2= 4.1D+01
   Bfn.  Coefficient  Atom+Function         Bfn.  Coefficient  Atom+Function  
  ----- ------------  ---------------      ----- ------------  ---------------
   217     18.163174  14 C  s               509    -10.122350  30 C  s         
   384     -6.780250  22 H  s               559      6.608320  32 N  s         
   418     -6.334135  24 H  s               318      6.298824  19 C  py        
   472      5.696646  28 S  s               147      5.132974   9 C  px        
[...]
   509     11.253639  30 C  s               559    -10.358116  32 N  s         
   401     -9.472901  23 C  px              147      8.951687   9 C  px        
   148     -8.539838   9 C  py              428      8.093747  25 C  s         
   106     -7.120136   7 N  s               516      6.731208  30 C  px        
   472     -5.579776  28 S  s               402     -5.027458  23 C  py        

 Vector  175  Occ=0.000000D+00  E= 4.360642D-01
              MO Center=  1.3D-01, -1.9D+00,  4.6D-01, r^2= 2.1D+01
   Bfn.  Coefficient  Atom+Function         Bfn.  Coefficient  Atom+Function  
  ----- ------------  ---------------      ----- ------------  ---------------
   267      7.391551  16 N  s               509     -7.319540  30 C  s         
    56      7.224510   5 C  s               559      6.712398  32 N  s         
   149     -5.816872   9 C  pz               13      5.408032   2 C  s         
   114      5.311496   7 N  py              174     -4.864949  11 C  s         
   148      4.605972   9 C  py               55      4.349945   5 C  s         

 Vector  176  Occ=0.000000D+00  E= 4.410813D-01
              MO Center=  4.6D-01, -1.8D+00,  4.0D-01, r^2= 2.2D+01
   Bfn.  Coefficient  Atom+Function         Bfn.  Coefficient  Atom+Function  
  ----- ------------  ---------------      ----- ------------  ---------------
   217     21.718646  14 C  s               402      9.524939  23 C  py        
    56      7.064083   5 C  s                13     -6.561258   2 C  s         
   428     -6.122720  25 C  s               183      5.741232  11 C  pz        
   267     -5.489368  16 N  s               367      5.434123  21 N  px        
   148      5.331191   9 C  py              149     -5.278347   9 C  pz        

 Vector  177  Occ=0.000000D+00  E= 4.439642D-01
              MO Center=  7.8D-01, -2.7D+00,  3.6D-01, r^2= 2.4D+01
   Bfn.  Coefficient  Atom+Function         Bfn.  Coefficient  Atom+Function  
  ----- ------------  ---------------      ----- ------------  ---------------
   148     18.748279   9 C  py               56     12.732272   5 C  s         
   360     -9.334109  21 N  s               217     -8.373573  14 C  s         
   147     -8.151708   9 C  px              182     -6.324225  11 C  py        
   559     -5.547628  32 N  s               368      5.450764  21 N  py        
   318     -4.928161  19 C  py                2     -4.216277   1 H  s         

 Vector  178  Occ=0.000000D+00  E= 4.467611D-01
              MO Center=  4.0D-01, -1.9D+00,  4.5D-01, r^2= 2.5D+01
   Bfn.  Coefficient  Atom+Function         Bfn.  Coefficient  Atom+Function  
  ----- ------------  ---------------      ----- ------------  ---------------
   217     17.360016  14 C  s               173     11.474744  11 C  s         
   206     -8.694123  13 H  s               174     -8.152288  11 C  s         
    12     -7.967879   2 C  s                36      7.487461   3 H  s         
   181      7.415342  11 C  px              114      6.022884   7 N  py        
   197     -5.993437  12 H  s               318      5.983536  19 C  py        

 Vector  179  Occ=0.000000D+00  E= 4.506563D-01
              MO Center=  2.4D-02, -9.2D-01, -2.1D-01, r^2= 2.3D+01
   Bfn.  Coefficient  Atom+Function         Bfn.  Coefficient  Atom+Function  
  ----- ------------  ---------------      ----- ------------  ---------------
   148     16.531627   9 C  py               13     12.178909   2 C  s         
   360    -11.699525  21 N  s               267     10.003544  16 N  s         
   368      9.426744  21 N  py              114     -7.957547   7 N  py        
   226     -7.643679  14 C  pz              428     -7.246595  25 C  s         
    56     -6.950584   5 C  s               147      6.919594   9 C  px        

 Vector  180  Occ=0.000000D+00  E= 4.521803D-01
              MO Center=  6.5D-02, -3.1D-01, -1.8D-01, r^2= 2.3D+01
   Bfn.  Coefficient  Atom+Function         Bfn.  Coefficient  Atom+Function  
  ----- ------------  ---------------      ----- ------------  ---------------
   148     14.570682   9 C  py               13     13.907008   2 C  s         
   360    -10.755855  21 N  s               267     -7.476541  16 N  s         
    64      7.016759   5 C  py              206     -6.509397  13 H  s         
   149      6.275071   9 C  pz              368      6.131084  21 N  py        
   319     -5.376445  19 C  pz               63     -4.766314   5 C  px        

 Vector  181  Occ=0.000000D+00  E= 4.567705D-01
              MO Center=  3.8D-01, -9.0D-01, -1.6D-01, r^2= 2.4D+01
   Bfn.  Coefficient  Atom+Function         Bfn.  Coefficient  Atom+Function  
  ----- ------------  ---------------      ----- ------------  ---------------
   148     16.479363   9 C  py               56     14.062033   5 C  s         
   174    -11.294988  11 C  s               509    -10.859625  30 C  s         
   106     10.753206   7 N  s               360     -9.020709  21 N  s         
   114      7.638384   7 N  py              403      7.321929  23 C  pz        
   368      6.416518  21 N  py              147     -6.254926   9 C  px        

 Vector  182  Occ=0.000000D+00  E= 4.638403D-01
              MO Center= -1.3D-01,  2.7D-01,  1.3D-01, r^2= 2.1D+01
   Bfn.  Coefficient  Atom+Function         Bfn.  Coefficient  Atom+Function  
  ----- ------------  ---------------      ----- ------------  ---------------
   318     22.288147  19 C  py              428    -16.204475  25 C  s         
   402     12.445348  23 C  py              181      8.494060  11 C  px        
   217      8.443079  14 C  s               163      6.668018  10 H  s         
   206      6.636874  13 H  s               427     -5.832771  25 C  s         
    13      5.775452   2 C  s               360      5.607966  21 N  s         

 Vector  183  Occ=0.000000D+00  E= 4.694172D-01
              MO Center= -7.4D-01,  3.1D-01,  1.8D-01, r^2= 2.2D+01
   Bfn.  Coefficient  Atom+Function         Bfn.  Coefficient  Atom+Function  
  ----- ------------  ---------------      ----- ------------  ---------------
   217     15.614085  14 C  s               428    -13.867580  25 C  s         
   267    -13.731107  16 N  s                13     12.831430   2 C  s         
   403     -9.260273  23 C  pz               64      8.603344   5 C  py        
   318      7.872237  19 C  py              173      7.370777  11 C  s         
   225      6.847597  14 C  py              559      6.788934  32 N  s         

 Vector  184  Occ=0.000000D+00  E= 4.728983D-01
              MO Center=  1.5D-01,  8.9D-01,  2.8D-01, r^2= 2.1D+01
   Bfn.  Coefficient  Atom+Function         Bfn.  Coefficient  Atom+Function  
  ----- ------------  ---------------      ----- ------------  ---------------
   217     11.892289  14 C  s               318     11.115840  19 C  py        
   147      8.549074   9 C  px              173     -8.208349  11 C  s         
   197      7.815266  12 H  s                56      7.327977   5 C  s         
   402      7.296061  23 C  py              267     -6.797852  16 N  s         
   182      6.126975  11 C  py              509     -5.300696  30 C  s         

 Vector  185  Occ=0.000000D+00  E= 4.738831D-01
              MO Center=  1.9D-01,  1.1D+00, -6.9D-02, r^2= 2.1D+01
   Bfn.  Coefficient  Atom+Function         Bfn.  Coefficient  Atom+Function  
  ----- ------------  ---------------      ----- ------------  ---------------
    13     10.665010   2 C  s               217    -10.079838  14 C  s         
   428     -9.053696  25 C  s               368      8.114521  21 N  py        
   148      7.735428   9 C  py              318     -6.854856  19 C  py        
   559      6.562651  32 N  s                64      5.502348   5 C  py        
   242      5.316025  15 O  s               518     -4.501975  30 C  pz        

 Vector  186  Occ=0.000000D+00  E= 4.805791D-01
              MO Center= -3.7D-01, -7.5D-01,  1.6D-01, r^2= 2.2D+01
   Bfn.  Coefficient  Atom+Function         Bfn.  Coefficient  Atom+Function  
  ----- ------------  ---------------      ----- ------------  ---------------
    56     14.496368   5 C  s               267    -10.020312  16 N  s         
   360      9.720470  21 N  s               114      9.150027   7 N  py        
   174     -9.042883  11 C  s               428      8.496447  25 C  s         
   318     -7.819152  19 C  py              509     -6.828743  30 C  s         
   217     -6.282785  14 C  s               147     -5.918509   9 C  px        

 Vector  187  Occ=0.000000D+00  E= 4.850005D-01
              MO Center= -5.0D-01,  7.0D-01,  1.6D-01, r^2= 2.0D+01
   Bfn.  Coefficient  Atom+Function         Bfn.  Coefficient  Atom+Function  
  ----- ------------  ---------------      ----- ------------  ---------------
   318     10.344567  19 C  py              428      9.749378  25 C  s         
    56      8.554291   5 C  s               460     -7.904346  27 H  s         
   114      7.458556   7 N  py              360     -6.656362  21 N  s         
   509     -6.433914  30 C  s               106      5.950386   7 N  s         
   197      5.478889  12 H  s               368     -5.489645  21 N  py        

 Vector  188  Occ=0.000000D+00  E= 4.863895D-01
              MO Center= -7.3D-01, -8.9D-01,  5.5D-01, r^2= 2.1D+01
   Bfn.  Coefficient  Atom+Function         Bfn.  Coefficient  Atom+Function  
  ----- ------------  ---------------      ----- ------------  ---------------
   217     12.617765  14 C  s               147     10.487579   9 C  px        
   148      8.997507   9 C  py              509     -8.631859  30 C  s         
   360     -4.795411  21 N  s                56      4.402579   5 C  s         
   226     -4.313350  14 C  pz              197      4.269750  12 H  s         
   182     -4.054651  11 C  py              559      4.045523  32 N  s         

 Vector  189  Occ=0.000000D+00  E= 4.906051D-01
              MO Center=  3.7D-01, -5.4D-01, -4.4D-02, r^2= 2.1D+01
   Bfn.  Coefficient  Atom+Function         Bfn.  Coefficient  Atom+Function  
  ----- ------------  ---------------      ----- ------------  ---------------
    56     22.218827   5 C  s               174    -10.472446  11 C  s         
    13     -9.145322   2 C  s               360     -9.087873  21 N  s         
   148      7.401600   9 C  py               12     -7.351883   2 C  s         
   217     -6.577602  14 C  s               509      6.606215  30 C  s         
   106     -6.124367   7 N  s               114      6.135403   7 N  py        

 Vector  190  Occ=0.000000D+00  E= 4.934192D-01
              MO Center= -2.4D-01, -7.5D-01, -1.1D-01, r^2= 2.3D+01
   Bfn.  Coefficient  Atom+Function         Bfn.  Coefficient  Atom+Function  
  ----- ------------  ---------------      ----- ------------  ---------------
   217     30.013028  14 C  s                13    -20.809354   2 C  s         
   267    -16.526681  16 N  s                56     16.256580   5 C  s         
    64     -9.896789   5 C  py               63      8.376869   5 C  px        
   509     -7.491249  30 C  s               559      6.018431  32 N  s         
   174     -5.821439  11 C  s               242     -5.723034  15 O  s         

 Vector  191  Occ=0.000000D+00  E= 5.013212D-01
              MO Center=  7.2D-01,  1.2D-01,  1.4D-01, r^2= 2.8D+01
   Bfn.  Coefficient  Atom+Function         Bfn.  Coefficient  Atom+Function  
  ----- ------------  ---------------      ----- ------------  ---------------
    13     39.653795   2 C  s                56    -38.957866   5 C  s         
   174     15.526342  11 C  s                64     12.212986   5 C  py        
    63    -10.815173   5 C  px              173     10.547031  11 C  s         
   402      9.785913  23 C  py               12      9.247143   2 C  s         
   106      8.915314   7 N  s                45     -8.444525   4 H  s         


 center of mass
 --------------
 x =  -0.00916270 y =   0.04330152 z =  -0.02574987

 moments of inertia (a.u.)
 ------------------
        9355.468016553546           0.000000000001          -0.000000000000
           0.000000000001        2848.229818767823          -0.000000000001
          -0.000000000000          -0.000000000001       10313.704772762663

  Mulliken analysis of the total density
  --------------------------------------

    Atom       Charge   Shell Charges
 -----------   ------   -------------------------------------------------------
    1 H    1     0.82   0.76  0.09  0.01  0.03 -0.07
    2 C    6     6.60   2.01  0.66  0.32  0.36  2.06  1.04 -0.03  0.06  0.12
    3 H    1     0.96   0.76  0.21  0.01  0.03 -0.06
    4 H    1     0.79   0.76  0.05  0.01  0.03 -0.06
    5 C    6     4.92   2.01  0.68  0.09 -0.19  1.90  0.33 -0.13  0.24  0.00
    6 O    8     8.72   2.01  0.82  0.99  0.15  2.79  1.82  0.14  0.01 -0.02
    7 N    7     7.64   2.01  0.72  0.89 -0.03  2.46  1.44  0.06  0.05  0.04
    8 H    1     0.99   0.75  0.21  0.00  0.06 -0.03
    9 C    6     6.15   2.01  0.66  0.08  0.01  2.00  1.26  0.01  0.14 -0.01
   10 H    1     1.13   0.77  0.32 -0.01  0.03  0.02
   11 C    6     6.57   2.01  0.67  0.56  0.08  2.05  0.92  0.00  0.09  0.19
   12 H    1     0.78   0.76  0.07  0.00  0.03 -0.09
   13 H    1     0.86   0.78  0.13 -0.02  0.03 -0.07
   14 C    6     4.56   2.01  0.68  0.00  0.13  1.90 -0.17 -0.02  0.24 -0.22
   15 O    8     8.83   2.01  0.81  1.03  0.15  2.81  1.87  0.14  0.02 -0.00
   16 N    7     7.28   2.01  0.72  0.84 -0.12  2.47  1.26  0.07  0.04 -0.00
   17 H    1     0.97   0.75  0.19 -0.01  0.06 -0.02
   18 H    1     0.98   0.76  0.20 -0.01  0.05 -0.04
   19 C    6     4.66   2.01  0.68  0.03  0.01  1.89  0.02  0.07  0.23 -0.27
   20 O    8     8.89   2.01  0.82  1.03  0.19  2.79  1.88  0.16  0.01 -0.00
   21 N    7     7.40   2.01  0.72  0.89 -0.14  2.45  1.48 -0.11  0.05  0.05
   22 H    1     0.83   0.73  0.19 -0.06  0.06 -0.10
   23 C    6     6.14   2.01  0.66  0.25 -0.00  2.00  1.00  0.02  0.14  0.06
   24 H    1     1.16   0.79  0.35 -0.02  0.03  0.02
   25 C    6     6.05   2.01  0.66  0.17 -0.07  1.99  1.12  0.01  0.10  0.06
   26 H    1     1.14   0.77  0.40 -0.00  0.03 -0.05
   27 H    1     1.10   0.77  0.31  0.02  0.03 -0.02
   28 S   16    15.60   2.00  2.03  0.87  0.73  0.06  6.00  2.31  1.60  0.06  0.10 -0.16
   29 H    1     0.96   0.71  0.18  0.01  0.03  0.04
   30 C    6     4.43   2.01  0.68 -0.07  0.08  1.89 -0.20  0.01  0.23 -0.20
   31 O    8     8.87   2.01  0.82  1.05  0.17  2.79  1.86  0.15  0.01  0.01
   32 N    7     7.29   2.01  0.72  0.85 -0.13  2.46  1.27  0.07  0.04 -0.00
   33 H    1     0.97   0.75  0.20 -0.00  0.05 -0.04
   34 H    1     0.98   0.75  0.21 -0.01  0.05 -0.02

       Multipole analysis of the density wrt the origin
       ------------------------------------------------

     L   x y z        total         open         nuclear
     -   - - -        -----         ----         -------
     0   0 0 0     -0.000000      0.000000    146.000000

     1   1 0 0      0.409288      0.000000      0.000000
     1   0 1 0      0.920335      0.000000     -0.000000
     1   0 0 1      1.647928      0.000000      0.000000

     2   2 0 0    -80.482239      0.000000   1048.801704
     2   1 1 0     -2.232601      0.000000    -33.912609
     2   1 0 1     -5.232761      0.000000     -1.955272
     2   0 2 0    -88.579506      0.000000   4517.604631
     2   0 1 1     -5.935210      0.000000    -13.830558
     2   0 0 2    -84.885237      0.000000    525.198914


 Task  times  cpu:     4236.8s     wall:     4256.2s


                                NWChem Input Module
                                -------------------


 Summary of allocated global arrays
-----------------------------------
  No active global arrays


MA_summarize_allocated_blocks: starting scan ...
MA_summarize_allocated_blocks: scan completed: 0 heap blocks, 0 stack blocks
MA usage statistics:

	allocation statistics:
					      heap	     stack
					      ----	     -----
	current number of blocks	         0	         0
	maximum number of blocks	        16	        14
	current total bytes		         0	         0
	maximum total bytes		    136720	  33860776
	maximum total K-bytes		       137	     33861
	maximum total M-bytes		         1	        34


                                     CITATION
                                     --------
                Please cite the following reference when publishing
                           results obtained with NWChem:

          E. Apra, E. J. Bylaska, W. A. de Jong, N. Govind, K. Kowalski,
       T. P. Straatsma, M. Valiev, H. J. J. van Dam, Y. Alexeev, J. Anchell,
       V. Anisimov, F. W. Aquino, R. Atta-Fynn, J. Autschbach, N. P. Bauman,
     J. C. Becca, D. E. Bernholdt, K. Bhaskaran-Nair, S. Bogatko, P. Borowski,
         J. Boschen, J. Brabec, A. Bruner, E. Cauet, Y. Chen, G. N. Chuev,
      C. J. Cramer, J. Daily, M. J. O. Deegan, T. H. Dunning Jr., M. Dupuis,
   K. G. Dyall, G. I. Fann, S. A. Fischer, A. Fonari, H. Fruchtl, L. Gagliardi,
      J. Garza, N. Gawande, S. Ghosh, K. Glaesemann, A. W. Gotz, J. Hammond,
       V. Helms, E. D. Hermes, K. Hirao, S. Hirata, M. Jacquelin, L. Jensen,
   B. G. Johnson, H. Jonsson, R. A. Kendall, M. Klemm, R. Kobayashi, V. Konkov,
      S. Krishnamoorthy, M. Krishnan, Z. Lin, R. D. Lins, R. J. Littlefield,
      A. J. Logsdail, K. Lopata, W. Ma, A. V. Marenich, J. Martin del Campo,
   D. Mejia-Rodriguez, J. E. Moore, J. M. Mullin, T. Nakajima, D. R. Nascimento,
    J. A. Nichols, P. J. Nichols, J. Nieplocha, A. Otero-de-la-Roza, B. Palmer,
    A. Panyala, T. Pirojsirikul, B. Peng, R. Peverati, J. Pittner, L. Pollack,
   R. M. Richard, P. Sadayappan, G. C. Schatz, W. A. Shelton, D. W. Silverstein,
   D. M. A. Smith, T. A. Soares, D. Song, M. Swart, H. L. Taylor, G. S. Thomas,
            V. Tipparaju, D. G. Truhlar, K. Tsemekhman, T. Van Voorhis,
      A. Vazquez-Mayagoitia, P. Verma, O. Villa, A. Vishnu, K. D. Vogiatzis,
        D. Wang, J. H. Weare, M. J. Williamson, T. L. Windus, K. Wolinski,
        A. T. Wong, Q. Wu, C. Yang, Q. Yu, M. Zacharias, Z. Zhang, Y. Zhao,
                                and R. J. Harrison
                        "NWChem: Past, present, and future
                         J. Chem. Phys. 152, 184102 (2020)
                               doi:10.1063/5.0004997

                                      AUTHORS
                                      -------
  E. Apra, E. J. Bylaska, N. Govind, K. Kowalski, M. Valiev, D. Mejia-Rodriguez,
       A. Kunitsa, N. P. Bauman, A. Panyala, W. A. de Jong, T. P. Straatsma,
   H. J. J. van Dam, D. Wang, T. L. Windus, J. Hammond, J. Autschbach, A. Woods,
    K. Bhaskaran-Nair, J. Brabec, K. Lopata, S. A. Fischer, S. Krishnamoorthy,
     M. Jacquelin, W. Ma, M. Klemm, O. Villa, Y. Chen, V. Anisimov, F. Aquino,
     S. Hirata, M. T. Hackler, E. Hermes, L. Jensen, J. E. Moore, J. C. Becca,
      V. Konjkov, T. Risthaus, M. Malagoli, A. Marenich, A. Otero-de-la-Roza,
        J. Mullin, P. Nichols, R. Peverati, J. Pittner, Y. Zhao, P.-D. Fan,
        A. Fonari, M. J. Williamson, R. J. Harrison, J. R. Rehr, M. Dupuis,
     D. Silverstein, D. M. A. Smith, J. Nieplocha, V. Tipparaju, M. Krishnan,
     B. E. Van Kuiken, A. Vazquez-Mayagoitia, M. Swart, Q. Wu, T. Van Voorhis,
     A. A. Auer, M. Nooijen, L. D. Crosby, E. Brown, G. Cisneros, G. I. Fann,
   H. Fruchtl, J. Garza, K. Hirao, R. A. Kendall, J. A. Nichols, K. Tsemekhman,
    K. Wolinski, J. Anchell, D. E. Bernholdt, P. Borowski, T. Clark, D. Clerc,
   H. Dachsel, M. J. O. Deegan, K. Dyall, D. Elwood, E. Glendening, M. Gutowski,
   A. C. Hess, J. Jaffe, B. G. Johnson, J. Ju, R. Kobayashi, R. Kutteh, Z. Lin,
   R. Littlefield, X. Long, B. Meng, T. Nakajima, S. Niu, L. Pollack, M. Rosing,
   K. Glaesemann, G. Sandrone, M. Stave, H. Taylor, G. Thomas, J. H. van Lenthe,
                               A. T. Wong, Z. Zhang.

 Total times  cpu:     4236.8s     wall:     4256.7s
