export TMOUT=5400
export TMPDIR=/tmp
export PTMPDIR=/tmp/ptmp
 argument  1 = inputs/ASN_MET_4.nw



============================== echo of input deck ==============================
start ASN_MET_4
geometry
H          4.82800        8.65800      -14.28400
C          3.82200        8.27500      -14.44300
H          3.70700        7.96600      -15.48100
H          3.08900        9.04400      -14.20800
C          3.59500        7.07800      -13.54900
O          3.33300        5.98700      -14.03700
N          3.69600        7.28800      -12.23900
H          3.88000        8.22500      -11.91200
C          3.46100        6.27600      -11.20500
H          2.64800        5.62200      -11.52900
C          4.74100        5.42800      -11.03700
H          5.04000        5.02300      -12.00400
H          5.54200        6.06700      -10.66700
C          4.55800        4.25400      -10.08900
O          3.48300        3.69500       -9.94800
N          5.58100        3.87300       -9.36500
H          5.39900        3.15800       -8.68500
H          6.44100        4.38600       -9.38900
C          3.03600        6.94700       -9.88300
O          3.23300        8.14900       -9.70100
N          2.48400        6.17100       -8.94800
H          2.42300        5.17800       -9.14900
C          2.27600        6.60100       -7.56300
H          1.74000        7.55000       -7.58000
C          1.40000        5.56000       -6.84400
H          0.45100        5.47000       -7.37400
H          1.89800        4.59000       -6.88300
C          1.11700        5.89600       -5.37300
H          0.45600        5.12900       -4.96800
H          2.05300        5.84000       -4.81800
S          0.36800        7.52200       -5.05900
C         -1.25900        7.30600       -5.83000
H         -1.14500        7.14700       -6.90200
H         -1.76600        6.44900       -5.38500
H         -1.85800        8.20200       -5.66500
C          3.61900        6.82800       -6.84400
O          4.57700        6.08400       -7.03000
N          3.70600        7.83800       -5.98900
H          2.90900        8.43100       -5.82600
H          4.58300        7.99100       -5.52000
end

basis
 * library aug-cc-pvdz
end

echo

scf
 direct
end

task scf energy
================================================================================


                                         
                                         


             Northwest Computational Chemistry Package (NWChem) 7.2.0
             --------------------------------------------------------


                    Environmental Molecular Sciences Laboratory
                       Pacific Northwest National Laboratory
                                Richland, WA 99352

                              Copyright (c) 1994-2022
                       Pacific Northwest National Laboratory
                            Battelle Memorial Institute

             NWChem is an open-source computational chemistry package
                        distributed under the terms of the
                      Educational Community License (ECL) 2.0
             A copy of the license is included with this distribution
                              in the LICENSE.TXT file

                                  ACKNOWLEDGMENT
                                  --------------

            This software and its documentation were developed at the
            EMSL at Pacific Northwest National Laboratory, a multiprogram
            national laboratory, operated for the U.S. Department of Energy
            by Battelle under Contract Number DE-AC05-76RL01830. Support
            for this work was provided by the Department of Energy Office
            of Biological and Environmental Research, Office of Basic
            Energy Sciences, and the Office of Advanced Scientific Computing.


           Job information
           ---------------

    hostname        = nova21-speedy-11
    program         = /opt/rit/el9/20230413/app/linux-rhel9-x86_64_v3/gcc-11.2.1/nwchem-7.2.0-oxtctbuhfuzyfaoziquq6bki22grib3g/bin/nwchem
    date            = Thu Jul 10 09:26:34 2025

    compiled        = Wed_May_17_23:46:39_2023
    source          = /tmp/root/spack-stage/spack-stage-nwchem-7.2.0-oxtctbuhfuzyfaoziquq6bki22grib3g/spack-src
    nwchem branch   = 7.2.0
    nwchem revision = d0d141fd
    ga revision     = 5.8.0
    use scalapack   = T
    input           = inputs/ASN_MET_4.nw
    prefix          = ASN_MET_4.
    data base       = ./ASN_MET_4.db
    status          = startup
    nproc           =        8
    time left       =     -1s



           Memory information
           ------------------

    heap     =   26214396 doubles =    200.0 Mbytes
    stack    =   26214401 doubles =    200.0 Mbytes
    global   =   52428800 doubles =    400.0 Mbytes (distinct from heap & stack)
    total    =  104857597 doubles =    800.0 Mbytes
    verify   = yes
    hardfail = no 


           Directory information
           ---------------------

  0 permanent = .
  0 scratch   = .




                                NWChem Input Module
                                -------------------



 Scaling coordinates for geometry "geometry" by  1.889725989
 (inverse scale =  0.529177249)

 C1  symmetry detected

          ------
          auto-z
          ------
  no constraints, skipping    0.0000000000000000     
  no constraints, skipping    0.0000000000000000     


                             Geometry "geometry" -> ""
                             -------------------------

 Output coordinates in angstroms (scale by  1.889725989 to convert to a.u.)

  No.       Tag          Charge          X              Y              Z
 ---- ---------------- ---------- -------------- -------------- --------------
    1 H                    1.0000    -2.03702449     5.45997525     1.68966470
    2 C                    6.0000    -2.44897081     5.24849275     0.70499147
    3 H                    1.0000    -2.63204329     6.18254996     0.17567910
    4 H                    1.0000    -3.38095874     4.69542029     0.80186436
    5 C                    6.0000    -1.45876087     4.42503017    -0.08555750
    6 O                    8.0000    -1.00493238     4.85296951    -1.13816218
    7 N                    7.0000    -1.12784654     3.24233029     0.42641681
    8 H                    1.0000    -1.57269951     2.94389104     1.28186630
    9 C                    6.0000    -0.22939014     2.27349141    -0.20813211
   10 H                    1.0000    -0.38011603     2.30755094    -1.28969702
   11 C                    6.0000     1.23091131     2.67090072     0.10059679
   12 H                    1.0000     1.39901074     3.70523744    -0.20007764
   13 H                    1.0000     1.39934245     2.59097270     1.17393945
   14 C                    6.0000     2.24965747     1.81291712    -0.63185758
   15 O                    8.0000     2.01445183     1.31150564    -1.71871168
   16 N                    7.0000     3.39370735     1.56603253    -0.04358563
   17 H                    1.0000     4.00237644     0.92194468    -0.51414039
   18 H                    1.0000     3.56342321     1.88063079     0.89213305
   19 C                    6.0000    -0.55262302     0.84471262     0.27421808
   20 O                    8.0000    -1.22332209     0.66556948     1.29147296
   21 N                    7.0000    -0.05248954    -0.17158367    -0.43155338
   22 H                    1.0000     0.54952312     0.06204583    -1.21460447
   23 C                    6.0000    -0.04822166    -1.55772836     0.04276053
   24 H                    1.0000    -1.06398559    -1.81629200     0.34201707
   25 C                    6.0000     0.36733149    -2.48014039    -1.11676075
   26 H                    1.0000    -0.33445038    -2.34939574    -1.94138736
   27 H                    1.0000     1.35628084    -2.18305910    -1.46910560
   28 C                    6.0000     0.41840108    -3.96741081    -0.73960747
   29 H                    1.0000     0.67513430    -4.53813654    -1.63268932
   30 H                    1.0000     1.22349564    -4.11558079    -0.02049316
   31 S                   16.0000    -1.10636743    -4.66144323    -0.03471527
   32 C                    6.0000    -2.22202385    -4.55956436    -1.46060356
   33 H                    1.0000    -2.37818131    -3.51728522    -1.73760542
   34 H                    1.0000    -1.79183855    -5.10156759    -2.30363150
   35 H                    1.0000    -3.18200621    -5.00601753    -1.19992091
   36 C                    6.0000     0.86439254    -1.72139034     1.27259348
   37 O                    8.0000     1.93580919    -1.12899705     1.35645383
   38 N                    7.0000     0.47451482    -2.54846539     2.23313304
   39 H                    1.0000    -0.39580165    -3.04702543     2.14702772
   40 H                    1.0000     1.06692163    -2.65520728     3.03945763

      Atomic Mass 
      ----------- 

      H                  1.007825
      C                 12.000000
      O                 15.994910
      N                 14.003070
      S                 31.972070


 Effective nuclear repulsion energy (a.u.)    1799.7680626572

            Nuclear Dipole moment (a.u.) 
            ----------------------------
        X                 Y               Z
 ---------------- ---------------- ----------------
    -0.0000000000    -0.0000000000    -0.0000000000



                                Z-matrix (autoz)
                                -------- 

 Units are Angstrom for bonds and degrees for angles

      Type          Name      I     J     K     L     M      Value
      ----------- --------  ----- ----- ----- ----- ----- ----------
    1 Stretch                  1     2                       1.08812
    2 Stretch                  2     3                       1.08911
    3 Stretch                  2     4                       1.08806
    4 Stretch                  2     5                       1.51115
    5 Stretch                  5     6                       1.22355
    6 Stretch                  5     7                       1.33056
    7 Stretch                  7     8                       1.00933
    8 Stretch                  7     9                       1.46578
    9 Stretch                  9    10                       1.09255
   10 Stretch                  9    11                       1.54458
   11 Stretch                  9    19                       1.54225
   12 Stretch                 11    12                       1.09019
   13 Stretch                 11    13                       1.08941
   14 Stretch                 11    14                       1.52002
   15 Stretch                 14    15                       1.21983
   16 Stretch                 14    16                       1.30991
   17 Stretch                 16    17                       1.00337
   18 Stretch                 16    18                       1.00167
   19 Stretch                 19    20                       1.23156
   20 Stretch                 19    21                       1.33458
   21 Stretch                 21    22                       1.01497
   22 Stretch                 21    23                       1.46506
   23 Stretch                 23    24                       1.09004
   24 Stretch                 23    25                       1.53884
   25 Stretch                 23    36                       1.54017
   26 Stretch                 25    26                       1.09069
   27 Stretch                 25    27                       1.09107
   28 Stretch                 25    28                       1.53520
   29 Stretch                 28    29                       1.09052
   30 Stretch                 28    30                       1.08961
   31 Stretch                 28    31                       1.81755
   32 Stretch                 31    32                       1.81335
   33 Stretch                 32    33                       1.08971
   34 Stretch                 32    34                       1.09065
   35 Stretch                 32    35                       1.09034
   36 Stretch                 36    37                       1.22715
   37 Stretch                 36    38                       1.32616
   38 Stretch                 38    39                       1.00669
   39 Stretch                 38    40                       1.00623
   40 Bend                     1     2     3               109.67920
   41 Bend                     1     2     4               110.02959
   42 Bend                     1     2     5               109.34423
   43 Bend                     2     5     6               120.16642
   44 Bend                     2     5     7               116.48985
   45 Bend                     3     2     4               109.58675
   46 Bend                     3     2     5               108.85917
   47 Bend                     4     2     5               109.32116
   48 Bend                     5     7     8               118.64126
   49 Bend                     5     7     9               124.98662
   50 Bend                     6     5     7               123.34372
   51 Bend                     7     9    10               108.86796
   52 Bend                     7     9    11               108.83934
   53 Bend                     7     9    19               110.39417
   54 Bend                     8     7     9               116.20748
   55 Bend                     9    11    12               109.55817
   56 Bend                     9    11    13               108.91859
   57 Bend                     9    11    14               113.08536
   58 Bend                     9    19    20               120.47949
   59 Bend                     9    19    21               117.48663
   60 Bend                    10     9    11               108.67981
   61 Bend                    10     9    19               108.03387
   62 Bend                    11     9    19               111.96234
   63 Bend                    11    14    15               122.14946
   64 Bend                    11    14    16               118.38118
   65 Bend                    12    11    13               108.51187
   66 Bend                    12    11    14               107.41516
   67 Bend                    13    11    14               109.25232
   68 Bend                    14    16    17               116.11585
   69 Bend                    14    16    18               120.55120
   70 Bend                    15    14    16               119.41078
   71 Bend                    17    16    18               122.47462
   72 Bend                    19    21    22               117.06391
   73 Bend                    19    21    23               123.39269
   74 Bend                    20    19    21               122.01411
   75 Bend                    21    23    24               108.09518
   76 Bend                    21    23    25               108.90341
   77 Bend                    21    23    36               111.14815
   78 Bend                    22    21    23               117.76400
   79 Bend                    23    25    26               108.91024
   80 Bend                    23    25    27               108.95890
   81 Bend                    23    25    28               113.86468
   82 Bend                    23    36    37               121.37339
   83 Bend                    23    36    38               118.06208
   84 Bend                    24    23    25               108.44063
   85 Bend                    24    23    36               107.92302
   86 Bend                    25    23    36               112.20789
   87 Bend                    25    28    29               108.27951
   88 Bend                    25    28    30               108.56948
   89 Bend                    25    28    31               115.93182
   90 Bend                    26    25    27               107.84302
   91 Bend                    26    25    28               108.86127
   92 Bend                    27    25    28               108.23825
   93 Bend                    28    31    32               100.93691
   94 Bend                    29    28    30               107.17957
   95 Bend                    29    28    31               108.37698
   96 Bend                    30    28    31               108.17853
   97 Bend                    31    32    33               109.98583
   98 Bend                    31    32    34               109.70684
   99 Bend                    31    32    35               109.31046
  100 Bend                    33    32    34               109.59456
  101 Bend                    33    32    35               109.04110
  102 Bend                    34    32    35               109.18324
  103 Bend                    36    38    39               120.07141
  104 Bend                    36    38    40               118.26057
  105 Bend                    37    36    38               120.54738
  106 Bend                    39    38    40               121.66741
  107 Torsion                  1     2     5     6        -119.65746
  108 Torsion                  1     2     5     7          60.38305
  109 Torsion                  2     5     7     8           2.30511
  110 Torsion                  2     5     7     9         177.45357
  111 Torsion                  3     2     5     6           0.14856
  112 Torsion                  3     2     5     7        -179.81093
  113 Torsion                  4     2     5     6         119.82856
  114 Torsion                  4     2     5     7         -60.13093
  115 Torsion                  5     7     9    10         -35.85418
  116 Torsion                  5     7     9    11          82.45496
  117 Torsion                  5     7     9    19        -154.28478
  118 Torsion                  6     5     7     8        -177.65296
  119 Torsion                  6     5     7     9          -2.50450
  120 Torsion                  7     9    11    12         -54.23007
  121 Torsion                  7     9    11    13          64.32120
  122 Torsion                  7     9    11    14        -174.01147
  123 Torsion                  7     9    19    20         -17.11942
  124 Torsion                  7     9    19    21         164.46601
  125 Torsion                  8     7     9    10         139.40031
  126 Torsion                  8     7     9    11        -102.29055
  127 Torsion                  8     7     9    19          20.96971
  128 Torsion                  9    11    14    15          29.95870
  129 Torsion                  9    11    14    16        -147.23951
  130 Torsion                  9    19    21    22           3.07244
  131 Torsion                  9    19    21    23         167.51162
  132 Torsion                 10     9    11    12          64.19751
  133 Torsion                 10     9    11    13        -177.25122
  134 Torsion                 10     9    11    14         -55.58389
  135 Torsion                 10     9    19    20        -136.05864
  136 Torsion                 10     9    19    21          45.52679
  137 Torsion                 11     9    19    20         104.30631
  138 Torsion                 11     9    19    21         -74.10826
  139 Torsion                 11    14    16    17         174.00215
  140 Torsion                 11    14    16    18           4.35027
  141 Torsion                 12    11     9    19        -176.54712
  142 Torsion                 12    11    14    15         -91.04439
  143 Torsion                 12    11    14    16          91.75740
  144 Torsion                 13    11     9    19         -57.99586
  145 Torsion                 13    11    14    15         151.43815
  146 Torsion                 13    11    14    16         -25.76006
  147 Torsion                 14    11     9    19          63.67148
  148 Torsion                 15    14    16    17          -3.27478
  149 Torsion                 15    14    16    18        -172.92666
  150 Torsion                 19    21    23    24          52.35604
  151 Torsion                 19    21    23    25         169.97878
  152 Torsion                 19    21    23    36         -65.90770
  153 Torsion                 20    19    21    22        -175.31615
  154 Torsion                 20    19    21    23         -10.87697
  155 Torsion                 21    23    25    26         -58.69321
  156 Torsion                 21    23    25    27          58.70379
  157 Torsion                 21    23    25    28         179.62339
  158 Torsion                 21    23    36    37         -38.87825
  159 Torsion                 21    23    36    38         142.62046
  160 Torsion                 22    21    23    24        -143.30624
  161 Torsion                 22    21    23    25         -25.68350
  162 Torsion                 22    21    23    36          98.43002
  163 Torsion                 23    25    28    29         177.41038
  164 Torsion                 23    25    28    30         -66.54198
  165 Torsion                 23    25    28    31          55.41729
  166 Torsion                 23    36    38    39          -0.06789
  167 Torsion                 23    36    38    40        -179.78958
  168 Torsion                 24    23    25    26          58.71060
  169 Torsion                 24    23    25    27         176.10761
  170 Torsion                 24    23    25    28         -62.97280
  171 Torsion                 24    23    36    37        -157.24586
  172 Torsion                 24    23    36    38          24.25284
  173 Torsion                 25    23    36    37          83.33879
  174 Torsion                 25    23    36    38         -95.16250
  175 Torsion                 25    28    31    32          66.57394
  176 Torsion                 26    25    23    36         177.82256
  177 Torsion                 26    25    28    29          55.69985
  178 Torsion                 26    25    28    30         171.74749
  179 Torsion                 26    25    28    31         -66.29324
  180 Torsion                 27    25    23    36         -64.78043
  181 Torsion                 27    25    28    29         -61.26833
  182 Torsion                 27    25    28    30          54.77930
  183 Torsion                 27    25    28    31         176.73857
  184 Torsion                 28    25    23    36          56.13916
  185 Torsion                 28    31    32    33         -63.72634
  186 Torsion                 28    31    32    34          56.89239
  187 Torsion                 28    31    32    35         176.58513
  188 Torsion                 29    28    31    32         -55.36742
  189 Torsion                 30    28    31    32        -171.25948
  190 Torsion                 37    36    38    39        -178.58209
  191 Torsion                 37    36    38    40           1.69621


            XYZ format geometry
            -------------------
    40
 geometry
 H                    -2.03702449     5.45997525     1.68966470
 C                    -2.44897081     5.24849275     0.70499147
 H                    -2.63204329     6.18254996     0.17567910
 H                    -3.38095874     4.69542029     0.80186436
 C                    -1.45876087     4.42503017    -0.08555750
 O                    -1.00493238     4.85296951    -1.13816218
 N                    -1.12784654     3.24233029     0.42641681
 H                    -1.57269951     2.94389104     1.28186630
 C                    -0.22939014     2.27349141    -0.20813211
 H                    -0.38011603     2.30755094    -1.28969702
 C                     1.23091131     2.67090072     0.10059679
 H                     1.39901074     3.70523744    -0.20007764
 H                     1.39934245     2.59097270     1.17393945
 C                     2.24965747     1.81291712    -0.63185758
 O                     2.01445183     1.31150564    -1.71871168
 N                     3.39370735     1.56603253    -0.04358563
 H                     4.00237644     0.92194468    -0.51414039
 H                     3.56342321     1.88063079     0.89213305
 C                    -0.55262302     0.84471262     0.27421808
 O                    -1.22332209     0.66556948     1.29147296
 N                    -0.05248954    -0.17158367    -0.43155338
 H                     0.54952312     0.06204583    -1.21460447
 C                    -0.04822166    -1.55772836     0.04276053
 H                    -1.06398559    -1.81629200     0.34201707
 C                     0.36733149    -2.48014039    -1.11676075
 H                    -0.33445038    -2.34939574    -1.94138736
 H                     1.35628084    -2.18305910    -1.46910560
 C                     0.41840108    -3.96741081    -0.73960747
 H                     0.67513430    -4.53813654    -1.63268932
 H                     1.22349564    -4.11558079    -0.02049316
 S                    -1.10636743    -4.66144323    -0.03471527
 C                    -2.22202385    -4.55956436    -1.46060356
 H                    -2.37818131    -3.51728522    -1.73760542
 H                    -1.79183855    -5.10156759    -2.30363150
 H                    -3.18200621    -5.00601753    -1.19992091
 C                     0.86439254    -1.72139034     1.27259348
 O                     1.93580919    -1.12899705     1.35645383
 N                     0.47451482    -2.54846539     2.23313304
 H                    -0.39580165    -3.04702543     2.14702772
 H                     1.06692163    -2.65520728     3.03945763

 ==============================================================================
                                internuclear distances
 ------------------------------------------------------------------------------
       center one      |      center two      | atomic units |  angstroms
 ------------------------------------------------------------------------------
    2 C                |   1 H                |     2.05625  |     1.08812
    3 H                |   2 C                |     2.05811  |     1.08911
    4 H                |   2 C                |     2.05614  |     1.08806
    5 C                |   2 C                |     2.85566  |     1.51115
    6 O                |   5 C                |     2.31217  |     1.22355
    7 N                |   5 C                |     2.51440  |     1.33056
    8 H                |   7 N                |     1.90736  |     1.00933
    9 C                |   7 N                |     2.76993  |     1.46578
   10 H                |   9 C                |     2.06462  |     1.09255
   11 C                |   9 C                |     2.91883  |     1.54458
   12 H                |  11 C                |     2.06016  |     1.09019
   13 H                |  11 C                |     2.05869  |     1.08941
   14 C                |  11 C                |     2.87243  |     1.52002
   15 O                |  14 C                |     2.30515  |     1.21983
   16 N                |  14 C                |     2.47537  |     1.30991
   17 H                |  16 N                |     1.89609  |     1.00337
   18 H                |  16 N                |     1.89288  |     1.00167
   19 C                |   9 C                |     2.91444  |     1.54225
   20 O                |  19 C                |     2.32731  |     1.23156
   21 N                |  19 C                |     2.52199  |     1.33458
   22 H                |  21 N                |     1.91802  |     1.01497
   23 C                |  21 N                |     2.76855  |     1.46506
   24 H                |  23 C                |     2.05988  |     1.09004
   25 C                |  23 C                |     2.90798  |     1.53884
   26 H                |  25 C                |     2.06110  |     1.09069
   27 H                |  25 C                |     2.06182  |     1.09107
   28 C                |  25 C                |     2.90110  |     1.53520
   29 H                |  28 C                |     2.06078  |     1.09052
   30 H                |  28 C                |     2.05907  |     1.08961
   31 S                |  28 C                |     3.43466  |     1.81755
   32 C                |  31 S                |     3.42673  |     1.81335
   33 H                |  32 C                |     2.05925  |     1.08971
   34 H                |  32 C                |     2.06103  |     1.09065
   35 H                |  32 C                |     2.06044  |     1.09034
   36 C                |  23 C                |     2.91051  |     1.54017
   37 O                |  36 C                |     2.31898  |     1.22715
   38 N                |  36 C                |     2.50607  |     1.32616
   39 H                |  38 N                |     1.90237  |     1.00669
   40 H                |  38 N                |     1.90150  |     1.00623
 ------------------------------------------------------------------------------
                         number of included internuclear distances:         39
 ==============================================================================



 ==============================================================================
                                 internuclear angles
 ------------------------------------------------------------------------------
        center 1       |       center 2       |       center 3       |  degrees
 ------------------------------------------------------------------------------
    1 H                |   2 C                |   3 H                |   109.68
    1 H                |   2 C                |   4 H                |   110.03
    1 H                |   2 C                |   5 C                |   109.34
    3 H                |   2 C                |   4 H                |   109.59
    3 H                |   2 C                |   5 C                |   108.86
    4 H                |   2 C                |   5 C                |   109.32
    2 C                |   5 C                |   6 O                |   120.17
    2 C                |   5 C                |   7 N                |   116.49
    6 O                |   5 C                |   7 N                |   123.34
    5 C                |   7 N                |   8 H                |   118.64
    5 C                |   7 N                |   9 C                |   124.99
    8 H                |   7 N                |   9 C                |   116.21
    7 N                |   9 C                |  10 H                |   108.87
    7 N                |   9 C                |  11 C                |   108.84
    7 N                |   9 C                |  19 C                |   110.39
   10 H                |   9 C                |  11 C                |   108.68
   10 H                |   9 C                |  19 C                |   108.03
   11 C                |   9 C                |  19 C                |   111.96
    9 C                |  11 C                |  12 H                |   109.56
    9 C                |  11 C                |  13 H                |   108.92
    9 C                |  11 C                |  14 C                |   113.09
   12 H                |  11 C                |  13 H                |   108.51
   12 H                |  11 C                |  14 C                |   107.42
   13 H                |  11 C                |  14 C                |   109.25
   11 C                |  14 C                |  15 O                |   122.15
   11 C                |  14 C                |  16 N                |   118.38
   15 O                |  14 C                |  16 N                |   119.41
   14 C                |  16 N                |  17 H                |   116.12
   14 C                |  16 N                |  18 H                |   120.55
   17 H                |  16 N                |  18 H                |   122.47
    9 C                |  19 C                |  20 O                |   120.48
    9 C                |  19 C                |  21 N                |   117.49
   20 O                |  19 C                |  21 N                |   122.01
   19 C                |  21 N                |  22 H                |   117.06
   19 C                |  21 N                |  23 C                |   123.39
   22 H                |  21 N                |  23 C                |   117.76
   21 N                |  23 C                |  24 H                |   108.10
   21 N                |  23 C                |  25 C                |   108.90
   21 N                |  23 C                |  36 C                |   111.15
   24 H                |  23 C                |  25 C                |   108.44
   24 H                |  23 C                |  36 C                |   107.92
   25 C                |  23 C                |  36 C                |   112.21
   23 C                |  25 C                |  26 H                |   108.91
   23 C                |  25 C                |  27 H                |   108.96
   23 C                |  25 C                |  28 C                |   113.86
   26 H                |  25 C                |  27 H                |   107.84
   26 H                |  25 C                |  28 C                |   108.86
   27 H                |  25 C                |  28 C                |   108.24
   25 C                |  28 C                |  29 H                |   108.28
   25 C                |  28 C                |  30 H                |   108.57
   25 C                |  28 C                |  31 S                |   115.93
   29 H                |  28 C                |  30 H                |   107.18
   29 H                |  28 C                |  31 S                |   108.38
   30 H                |  28 C                |  31 S                |   108.18
   28 C                |  31 S                |  32 C                |   100.94
   31 S                |  32 C                |  33 H                |   109.99
   31 S                |  32 C                |  34 H                |   109.71
   31 S                |  32 C                |  35 H                |   109.31
   33 H                |  32 C                |  34 H                |   109.59
   33 H                |  32 C                |  35 H                |   109.04
   34 H                |  32 C                |  35 H                |   109.18
   23 C                |  36 C                |  37 O                |   121.37
   23 C                |  36 C                |  38 N                |   118.06
   37 O                |  36 C                |  38 N                |   120.55
   36 C                |  38 N                |  39 H                |   120.07
   36 C                |  38 N                |  40 H                |   118.26
   39 H                |  38 N                |  40 H                |   121.67
 ------------------------------------------------------------------------------
                            number of included internuclear angles:         67
 ==============================================================================



  library name resolved from: environment
  library file name is: </opt/rit/el9/20230413/app/linux-rhel9-x86_64_v3/gcc-11.2.1/nwchem-7.2.0-oxtctbuhfuzyfaoziquq6bki22grib3g/share/nwchem/libraries/>
  


 Summary of "ao basis" -> "" (cartesian)
 ------------------------------------------------------------------------------
       Tag                 Description            Shells   Functions and Types
 ---------------- ------------------------------  ------  ---------------------
 *                        aug-cc-pvdz                 on all atoms 


                      Basis "ao basis" -> "ao basis" (cartesian)
                      -----
  H (Hydrogen)
  ------------
            Exponent  Coefficients 
       -------------- ---------------------------------------------------------
  1 S  1.30100000E+01  0.019685
  1 S  1.96200000E+00  0.137977
  1 S  4.44600000E-01  0.478148

  2 S  1.22000000E-01  1.000000

  3 S  2.97400000E-02  1.000000

  4 P  7.27000000E-01  1.000000

  5 P  1.41000000E-01  1.000000

  C (Carbon)
  ----------
            Exponent  Coefficients 
       -------------- ---------------------------------------------------------
  1 S  6.66500000E+03  0.000692
  1 S  1.00000000E+03  0.005329
  1 S  2.28000000E+02  0.027077
  1 S  6.47100000E+01  0.101718
  1 S  2.10600000E+01  0.274740
  1 S  7.49500000E+00  0.448564
  1 S  2.79700000E+00  0.285074
  1 S  5.21500000E-01  0.015204

  2 S  6.66500000E+03 -0.000146
  2 S  1.00000000E+03 -0.001154
  2 S  2.28000000E+02 -0.005725
  2 S  6.47100000E+01 -0.023312
  2 S  2.10600000E+01 -0.063955
  2 S  7.49500000E+00 -0.149981
  2 S  2.79700000E+00 -0.127262
  2 S  5.21500000E-01  0.544529

  3 S  1.59600000E-01  1.000000

  4 S  4.69000000E-02  1.000000

  5 P  9.43900000E+00  0.038109
  5 P  2.00200000E+00  0.209480
  5 P  5.45600000E-01  0.508557

  6 P  1.51700000E-01  1.000000

  7 P  4.04100000E-02  1.000000

  8 D  5.50000000E-01  1.000000

  9 D  1.51000000E-01  1.000000

  O (Oxygen)
  ----------
            Exponent  Coefficients 
       -------------- ---------------------------------------------------------
  1 S  1.17200000E+04  0.000710
  1 S  1.75900000E+03  0.005470
  1 S  4.00800000E+02  0.027837
  1 S  1.13700000E+02  0.104800
  1 S  3.70300000E+01  0.283062
  1 S  1.32700000E+01  0.448719
  1 S  5.02500000E+00  0.270952
  1 S  1.01300000E+00  0.015458

  2 S  1.17200000E+04 -0.000160
  2 S  1.75900000E+03 -0.001263
  2 S  4.00800000E+02 -0.006267
  2 S  1.13700000E+02 -0.025716
  2 S  3.70300000E+01 -0.070924
  2 S  1.32700000E+01 -0.165411
  2 S  5.02500000E+00 -0.116955
  2 S  1.01300000E+00  0.557368

  3 S  3.02300000E-01  1.000000

  4 S  7.89600000E-02  1.000000

  5 P  1.77000000E+01  0.043018
  5 P  3.85400000E+00  0.228913
  5 P  1.04600000E+00  0.508728

  6 P  2.75300000E-01  1.000000

  7 P  6.85600000E-02  1.000000

  8 D  1.18500000E+00  1.000000

  9 D  3.32000000E-01  1.000000

  N (Nitrogen)
  ------------
            Exponent  Coefficients 
       -------------- ---------------------------------------------------------
  1 S  9.04600000E+03  0.000700
  1 S  1.35700000E+03  0.005389
  1 S  3.09300000E+02  0.027406
  1 S  8.77300000E+01  0.103207
  1 S  2.85600000E+01  0.278723
  1 S  1.02100000E+01  0.448540
  1 S  3.83800000E+00  0.278238
  1 S  7.46600000E-01  0.015440

  2 S  9.04600000E+03 -0.000153
  2 S  1.35700000E+03 -0.001208
  2 S  3.09300000E+02 -0.005992
  2 S  8.77300000E+01 -0.024544
  2 S  2.85600000E+01 -0.067459
  2 S  1.02100000E+01 -0.158078
  2 S  3.83800000E+00 -0.121831
  2 S  7.46600000E-01  0.549003

  3 S  2.24800000E-01  1.000000

  4 S  6.12400000E-02  1.000000

  5 P  1.35500000E+01  0.039919
  5 P  2.91700000E+00  0.217169
  5 P  7.97300000E-01  0.510319

  6 P  2.18500000E-01  1.000000

  7 P  5.61100000E-02  1.000000

  8 D  8.17000000E-01  1.000000

  9 D  2.30000000E-01  1.000000

  S (Sulphur)
  -----------
            Exponent  Coefficients 
       -------------- ---------------------------------------------------------
  1 S  1.10800000E+05  0.000248
  1 S  1.66100000E+04  0.001920
  1 S  3.78100000E+03  0.009962
  1 S  1.07100000E+03  0.040298
  1 S  3.49800000E+02  0.128604
  1 S  1.26300000E+02  0.303480
  1 S  4.92600000E+01  0.421432
  1 S  2.01600000E+01  0.230781
  1 S  5.72000000E+00  0.017897
  1 S  2.18200000E+00 -0.002975
  1 S  4.32700000E-01  0.000850

  2 S  1.10800000E+05 -0.000069
  2 S  1.66100000E+04 -0.000528
  2 S  3.78100000E+03 -0.002797
  2 S  1.07100000E+03 -0.011265
  2 S  3.49800000E+02 -0.038883
  2 S  1.26300000E+02 -0.099503
  2 S  4.92600000E+01 -0.199740
  2 S  2.01600000E+01 -0.123360
  2 S  5.72000000E+00  0.513194
  2 S  2.18200000E+00  0.607120
  2 S  4.32700000E-01  0.039675

  3 S  1.10800000E+05  0.000020
  3 S  1.66100000E+04  0.000153
  3 S  3.78100000E+03  0.000810
  3 S  1.07100000E+03  0.003290
  3 S  3.49800000E+02  0.011297
  3 S  1.26300000E+02  0.029639
  3 S  4.92600000E+01  0.059985
  3 S  2.01600000E+01  0.041325
  3 S  5.72000000E+00 -0.207474
  3 S  2.18200000E+00 -0.392889
  3 S  4.32700000E-01  0.632840

  4 S  1.57000000E-01  1.000000

  5 S  5.07000000E-02  1.000000

  6 P  3.99700000E+02  0.004475
  6 P  9.41900000E+01  0.034171
  6 P  2.97500000E+01  0.144250
  6 P  1.07700000E+01  0.353928
  6 P  4.11900000E+00  0.459085
  6 P  1.62500000E+00  0.206383
  6 P  4.72600000E-01  0.010214

  7 P  3.99700000E+02 -0.001163
  7 P  9.41900000E+01 -0.008657
  7 P  2.97500000E+01 -0.039089
  7 P  1.07700000E+01 -0.093463
  7 P  4.11900000E+00 -0.147994
  7 P  1.62500000E+00  0.030190
  7 P  4.72600000E-01  0.561573

  8 P  1.40700000E-01  1.000000

  9 P  3.99000000E-02  1.000000

 10 D  4.79000000E-01  1.000000

 11 D  1.52000000E-01  1.000000



 Summary of "ao basis" -> "ao basis" (cartesian)
 ------------------------------------------------------------------------------
       Tag                 Description            Shells   Functions and Types
 ---------------- ------------------------------  ------  ---------------------
 H                        aug-cc-pvdz                5        9   3s2p
 C                        aug-cc-pvdz                9       25   4s3p2d
 O                        aug-cc-pvdz                9       25   4s3p2d
 N                        aug-cc-pvdz                9       25   4s3p2d
 S                        aug-cc-pvdz               11       29   5s4p2d


                                 NWChem SCF Module
                                 -----------------



  ao basis        = "ao basis"
  functions       =   684
  atoms           =    40
  closed shells   =    81
  open shells     =     0
  charge          =   0.00
  wavefunction    = RHF 
  input vectors   = atomic
  output vectors  = ./ASN_MET_4.movecs
  use symmetry    = F
  symmetry adapt  = F


 Summary of "ao basis" -> "ao basis" (cartesian)
 ------------------------------------------------------------------------------
       Tag                 Description            Shells   Functions and Types
 ---------------- ------------------------------  ------  ---------------------
 H                        aug-cc-pvdz                5        9   3s2p
 C                        aug-cc-pvdz                9       25   4s3p2d
 O                        aug-cc-pvdz                9       25   4s3p2d
 N                        aug-cc-pvdz                9       25   4s3p2d
 S                        aug-cc-pvdz               11       29   5s4p2d



 Forming initial guess at       0.9s


 !! The overlap matrix has   6 vectors deemed linearly dependent with
    eigenvalues:
 2.18D-06 2.46D-06 4.85D-06 5.28D-06 7.07D-06 9.73D-06


      Superposition of Atomic Density Guess
      -------------------------------------

 Sum of atomic energies:       -1338.08087253

      Non-variational initial energy
      ------------------------------

 Total energy =   -1350.764336
 1-e energy   =   -5407.802798
 2-e energy   =    2257.270399
 HOMO         =      -0.265538
 LUMO         =       0.008793


 Starting SCF solution at     331.5s



 ----------------------------------------------
         Quadratically convergent ROHF

 Convergence threshold     :          1.000E-04
 Maximum no. of iterations :           30
 Final Fock-matrix accuracy:          1.000E-10
 ----------------------------------------------


              iter       energy          gnorm     gmax       time
             ----- ------------------- --------- --------- --------
                 1    -1342.7376181879  2.70D+00  1.47D-01    701.1
                 2    -1343.1289106848  9.06D-01  4.62D-02   1462.3
                 3    -1343.2011344634  7.00D-02  3.73D-03   2492.6
                 4    -1343.2018954681  4.14D-03  3.76D-04   3848.2
                 5    -1343.2018987611  7.56D-06  4.20D-07   6185.5


       Final RHF  results 
       ------------------ 

         Total SCF energy =  -1343.201898761131
      One-electron energy =  -5422.455623372571
      Two-electron energy =   2279.485661954228
 Nuclear repulsion energy =   1799.768062657212

        Time for solution =   5856.0s


             Final eigenvalues
             -----------------

              1      
    1  -91.9647
    2  -20.5348
    3  -20.5276
    4  -20.5266
    5  -20.5163
    6  -15.5979
    7  -15.5955
    8  -15.5946
    9  -15.5917
   10  -11.3644
   11  -11.3602
   12  -11.3600
   13  -11.3482
   14  -11.3012
   15  -11.2992
   16  -11.2815
   17  -11.2754
   18  -11.2609
   19  -11.2589
   20  -11.2370
   21   -8.9655
   22   -6.6478
   23   -6.6465
   24   -6.6446
   25   -1.4014
   26   -1.3947
   27   -1.3856
   28   -1.3774
   29   -1.2452
   30   -1.2398
   31   -1.2302
   32   -1.2258
   33   -1.1125
   34   -1.0736
   35   -1.0409
   36   -0.9975
   37   -0.9767
   38   -0.9231
   39   -0.8936
   40   -0.8346
   41   -0.8102
   42   -0.7976
   43   -0.7869
   44   -0.7776
   45   -0.7519
   46   -0.7383
   47   -0.7164
   48   -0.6974
   49   -0.6880
   50   -0.6673
   51   -0.6549
   52   -0.6518
   53   -0.6430
   54   -0.6336
   55   -0.6208
   56   -0.6093
   57   -0.6026
   58   -0.6003
   59   -0.5946
   60   -0.5852
   61   -0.5796
   62   -0.5685
   63   -0.5614
   64   -0.5570
   65   -0.5504
   66   -0.5446
   67   -0.5284
   68   -0.5259
   69   -0.5179
   70   -0.4986
   71   -0.4968
   72   -0.4432
   73   -0.4384
   74   -0.4353
   75   -0.4272
   76   -0.4164
   77   -0.4150
   78   -0.4140
   79   -0.3985
   80   -0.3893
   81   -0.3545
   82    0.0301
   83    0.0336
   84    0.0375
   85    0.0395
   86    0.0436
   87    0.0507
   88    0.0534
   89    0.0601
   90    0.0629
   91    0.0651

                       ROHF Final Molecular Orbital Analysis
                       -------------------------------------

 Vector   25  Occ=2.000000D+00  E=-1.401425D+00
              MO Center=  1.6D+00,  1.3D+00, -7.8D-01, r^2= 3.4D+00
   Bfn.  Coefficient  Atom+Function         Bfn.  Coefficient  Atom+Function  
  ----- ------------  ---------------      ----- ------------  ---------------
   241      0.329486  15 O  s               240      0.308541  15 O  s         
   215      0.220302  14 C  s         

 Vector   26  Occ=2.000000D+00  E=-1.394699D+00
              MO Center=  3.7D-01,  3.4D-01,  4.9D-01, r^2= 5.2D+00
   Bfn.  Coefficient  Atom+Function         Bfn.  Coefficient  Atom+Function  
  ----- ------------  ---------------      ----- ------------  ---------------
   334      0.272124  20 O  s               333      0.245712  20 O  s         
   619      0.198561  37 O  s               618      0.175186  37 O  s         
   308      0.173017  19 C  s               241     -0.170972  15 O  s         
   240     -0.163038  15 O  s         

 Vector   27  Occ=2.000000D+00  E=-1.385599D+00
              MO Center=  6.8D-01, -4.3D-01,  1.1D+00, r^2= 5.5D+00
   Bfn.  Coefficient  Atom+Function         Bfn.  Coefficient  Atom+Function  
  ----- ------------  ---------------      ----- ------------  ---------------
   619      0.324999  37 O  s               618      0.290858  37 O  s         
   593      0.204268  36 C  s               334     -0.185153  20 O  s         
   333     -0.179640  20 O  s         

 Vector   28  Occ=2.000000D+00  E=-1.377369D+00
              MO Center= -1.1D+00,  4.1D+00, -4.7D-01, r^2= 3.3D+00
   Bfn.  Coefficient  Atom+Function         Bfn.  Coefficient  Atom+Function  
  ----- ------------  ---------------      ----- ------------  ---------------
    80      0.333094   6 O  s                79      0.331415   6 O  s         
    54      0.232763   5 C  s                12      0.157149   2 C  s         

 Vector   29  Occ=2.000000D+00  E=-1.245196D+00
              MO Center= -6.5D-02, -1.4D-01, -7.5D-02, r^2= 2.2D+00
   Bfn.  Coefficient  Atom+Function         Bfn.  Coefficient  Atom+Function  
  ----- ------------  ---------------      ----- ------------  ---------------
   359      0.426086  21 N  s               358      0.334566  21 N  s         
   334     -0.211663  20 O  s               393     -0.191267  23 C  s         
   333     -0.171742  20 O  s               392      0.151057  23 C  s         

 Vector   30  Occ=2.000000D+00  E=-1.239835D+00
              MO Center= -1.0D+00,  3.4D+00,  1.3D-01, r^2= 1.9D+00
   Bfn.  Coefficient  Atom+Function         Bfn.  Coefficient  Atom+Function  
  ----- ------------  ---------------      ----- ------------  ---------------
   105      0.449437   7 N  s               104      0.339388   7 N  s         
    80     -0.213065   6 O  s                79     -0.184844   6 O  s         
   128      0.150706   8 H  s         

 Vector   31  Occ=2.000000D+00  E=-1.230182D+00
              MO Center=  2.9D+00,  1.6D+00, -3.0D-01, r^2= 1.8D+00
   Bfn.  Coefficient  Atom+Function         Bfn.  Coefficient  Atom+Function  
  ----- ------------  ---------------      ----- ------------  ---------------
   266      0.387695  16 N  s               265      0.361675  16 N  s         
   241     -0.226605  15 O  s               173     -0.207862  11 C  s         
   240     -0.189479  15 O  s               220      0.166381  14 C  pz        
   298      0.167001  18 H  s               289      0.151932  17 H  s         

 Vector   32  Occ=2.000000D+00  E=-1.225814D+00
              MO Center=  6.5D-01, -2.2D+00,  1.9D+00, r^2= 1.5D+00
   Bfn.  Coefficient  Atom+Function         Bfn.  Coefficient  Atom+Function  
  ----- ------------  ---------------      ----- ------------  ---------------
   644      0.378823  38 N  s               643      0.367094  38 N  s         
   619     -0.216215  37 O  s               618     -0.181265  37 O  s         
   667      0.168404  39 H  s               676      0.156222  40 H  s         

 Vector   33  Occ=2.000000D+00  E=-1.112541D+00
              MO Center= -1.3D-01, -3.1D+00, -6.2D-01, r^2= 4.5D+00
   Bfn.  Coefficient  Atom+Function         Bfn.  Coefficient  Atom+Function  
  ----- ------------  ---------------      ----- ------------  ---------------
   469      0.225339  28 C  s               426      0.209050  25 C  s         
   393      0.195722  23 C  s               513      0.192095  31 S  s         
   427      0.180364  25 C  s               433     -0.176085  25 C  py        
   595      0.163565  36 C  s         

 Vector   34  Occ=2.000000D+00  E=-1.073566D+00
              MO Center=  2.0D-02,  1.7D+00, -5.5D-02, r^2= 9.0D+00
   Bfn.  Coefficient  Atom+Function         Bfn.  Coefficient  Atom+Function  
  ----- ------------  ---------------      ----- ------------  ---------------
   173      0.238246  11 C  s               172      0.230331  11 C  s         
   138      0.209882   9 C  s         

 Vector   35  Occ=2.000000D+00  E=-1.040876D+00
              MO Center= -7.3D-01, -2.5D+00, -5.8D-01, r^2= 9.6D+00
   Bfn.  Coefficient  Atom+Function         Bfn.  Coefficient  Atom+Function  
  ----- ------------  ---------------      ----- ------------  ---------------
   513      0.207713  31 S  s               541      0.207554  32 C  s         
   426     -0.162823  25 C  s               392     -0.156737  23 C  s         

 Vector   36  Occ=2.000000D+00  E=-9.974509D-01
              MO Center= -1.4D+00,  4.4D+00,  4.4D-01, r^2= 5.2D+00
   Bfn.  Coefficient  Atom+Function         Bfn.  Coefficient  Atom+Function  
  ----- ------------  ---------------      ----- ------------  ---------------
    11      0.316861   2 C  s                56     -0.310292   5 C  s         
    13      0.231458   2 C  s                12      0.180127   2 C  s         
   173      0.176833  11 C  s               172      0.156673  11 C  s         

 Vector   37  Occ=2.000000D+00  E=-9.767184D-01
              MO Center= -3.6D-01, -2.4D+00, -5.0D-01, r^2= 8.9D+00
   Bfn.  Coefficient  Atom+Function         Bfn.  Coefficient  Atom+Function  
  ----- ------------  ---------------      ----- ------------  ---------------
   469     -0.202946  28 C  s               541      0.195036  32 C  s         
   433      0.189425  25 C  py              392      0.187663  23 C  s         
   471      0.184291  28 C  s               427     -0.180909  25 C  s         
   542      0.150312  32 C  s         

 Vector   38  Occ=2.000000D+00  E=-9.231047D-01
              MO Center= -6.1D-02,  1.6D+00, -6.2D-02, r^2= 1.1D+01
   Bfn.  Coefficient  Atom+Function         Bfn.  Coefficient  Atom+Function  
  ----- ------------  ---------------      ----- ------------  ---------------
   138      0.210097   9 C  s               178     -0.209636  11 C  px        
   145     -0.163335   9 C  py        

 Vector   39  Occ=2.000000D+00  E=-8.936094D-01
              MO Center= -2.7D-01, -2.8D+00, -3.8D-01, r^2= 6.5D+00
   Bfn.  Coefficient  Atom+Function         Bfn.  Coefficient  Atom+Function  
  ----- ------------  ---------------      ----- ------------  ---------------
   393      0.403941  23 C  s               400      0.242756  23 C  pz        
   426     -0.208571  25 C  s               601      0.196159  36 C  pz        
   513      0.185008  31 S  s               514      0.173677  31 S  s         
   494      0.161663  29 H  s               541     -0.151061  32 C  s         

 Vector   40  Occ=2.000000D+00  E=-8.346397D-01
              MO Center= -1.5D-02, -1.6D+00,  3.2D-01, r^2= 1.0D+01
   Bfn.  Coefficient  Atom+Function         Bfn.  Coefficient  Atom+Function  
  ----- ------------  ---------------      ----- ------------  ---------------
   393      0.367041  23 C  s               514     -0.218713  31 S  s         
   513     -0.183816  31 S  s               593      0.161344  36 C  s         
   648     -0.160035  38 N  pz              362      0.155035  21 N  py        

 Vector   41  Occ=2.000000D+00  E=-8.101842D-01
              MO Center=  1.8D+00,  1.1D+00, -1.5D-01, r^2= 9.1D+00
   Bfn.  Coefficient  Atom+Function         Bfn.  Coefficient  Atom+Function  
  ----- ------------  ---------------      ----- ------------  ---------------
   268      0.262844  16 N  px              215     -0.206456  14 C  s         
   298      0.184707  18 H  s               216     -0.156705  14 C  s         
   241      0.156132  15 O  s               270      0.156063  16 N  pz        

 Vector   42  Occ=2.000000D+00  E=-7.975686D-01
              MO Center= -7.0D-01,  6.4D-01, -9.4D-02, r^2= 1.4D+01
   Bfn.  Coefficient  Atom+Function         Bfn.  Coefficient  Atom+Function  
  ----- ------------  ---------------      ----- ------------  ---------------
   514      0.216618  31 S  s               108      0.211659   7 N  py        
   105     -0.191590   7 N  s               128     -0.187966   8 H  s         
   359     -0.170175  21 N  s                54      0.160876   5 C  s         
   109     -0.158256   7 N  pz        

 Vector   43  Occ=2.000000D+00  E=-7.868867D-01
              MO Center=  1.5D-01, -2.1D+00,  5.2D-01, r^2= 7.1D+00
   Bfn.  Coefficient  Atom+Function         Bfn.  Coefficient  Atom+Function  
  ----- ------------  ---------------      ----- ------------  ---------------
   514      0.214585  31 S  s               309     -0.194572  19 C  s         
   667     -0.174697  39 H  s               647      0.171658  38 N  py        
   648     -0.162175  38 N  pz              382      0.159562  22 H  s         
   513      0.151135  31 S  s         

 Vector   44  Occ=2.000000D+00  E=-7.775843D-01
              MO Center=  2.0D-01,  1.6D+00,  3.1D-02, r^2= 7.9D+00
   Bfn.  Coefficient  Atom+Function         Bfn.  Coefficient  Atom+Function  
  ----- ------------  ---------------      ----- ------------  ---------------
   309      0.271564  19 C  s               105      0.238670   7 N  s         
   128      0.213755   8 H  s               109      0.208137   7 N  pz        
   163     -0.208804  10 H  s               144      0.193181   9 C  px        
   173     -0.176989  11 C  s               158      0.174198   9 C  dxz       
   148      0.164406   9 C  py               55     -0.153722   5 C  s         

 Vector   45  Occ=2.000000D+00  E=-7.518995D-01
              MO Center=  8.9D-01, -1.1D-01,  5.8D-01, r^2= 9.1D+00
   Bfn.  Coefficient  Atom+Function         Bfn.  Coefficient  Atom+Function  
  ----- ------------  ---------------      ----- ------------  ---------------
   646      0.208875  38 N  px              667     -0.205855  39 H  s         
   309      0.201527  19 C  s               400     -0.176681  23 C  pz        
   270     -0.173716  16 N  pz              298     -0.150977  18 H  s         

 Vector   46  Occ=2.000000D+00  E=-7.382962D-01
              MO Center=  1.8D+00,  3.3D-01,  4.9D-01, r^2= 8.9D+00
   Bfn.  Coefficient  Atom+Function         Bfn.  Coefficient  Atom+Function  
  ----- ------------  ---------------      ----- ------------  ---------------
   270      0.251045  16 N  pz              298      0.230910  18 H  s         
   289     -0.226086  17 H  s               646      0.186371  38 N  px        
   269      0.174748  16 N  py              667     -0.169255  39 H  s         

 Vector   47  Occ=2.000000D+00  E=-7.163635D-01
              MO Center= -1.2D-01,  7.8D-01,  6.9D-01, r^2= 1.3D+01
   Bfn.  Coefficient  Atom+Function         Bfn.  Coefficient  Atom+Function  
  ----- ------------  ---------------      ----- ------------  ---------------
   676      0.202595  40 H  s               312      0.184307  19 C  py        
   142     -0.177658   9 C  py              646      0.174987  38 N  px        
   648      0.165368  38 N  pz        

 Vector   48  Occ=2.000000D+00  E=-6.973993D-01
              MO Center=  4.3D-01, -7.8D-01,  3.5D-01, r^2= 7.5D+00
   Bfn.  Coefficient  Atom+Function         Bfn.  Coefficient  Atom+Function  
  ----- ------------  ---------------      ----- ------------  ---------------
   395      0.216428  23 C  px              601     -0.197588  36 C  pz        
   416     -0.180764  24 H  s               644      0.178887  38 N  s         
   598     -0.160437  36 C  pz              595     -0.159464  36 C  s         
   393     -0.151496  23 C  s         

 Vector   49  Occ=2.000000D+00  E=-6.879740D-01
              MO Center=  9.7D-01,  1.6D+00, -2.5D-01, r^2= 7.8D+00
   Bfn.  Coefficient  Atom+Function         Bfn.  Coefficient  Atom+Function  
  ----- ------------  ---------------      ----- ------------  ---------------
   177      0.187637  11 C  pz              218      0.187469  14 C  px        
   241      0.176140  15 O  s               205      0.155905  13 H  s         
   245     -0.153898  15 O  pz              268     -0.152444  16 N  px        

 Vector   50  Occ=2.000000D+00  E=-6.673316D-01
              MO Center= -3.2D-02, -2.6D-01, -2.9D-01, r^2= 1.4D+01
   Bfn.  Coefficient  Atom+Function         Bfn.  Coefficient  Atom+Function  
  ----- ------------  ---------------      ----- ------------  ---------------
   396      0.193554  23 C  py              431     -0.172229  25 C  pz        
   362     -0.163975  21 N  py              474     -0.157497  28 C  pz        

 Vector   51  Occ=2.000000D+00  E=-6.548943D-01
              MO Center= -1.2D-01, -4.2D-02,  4.1D-01, r^2= 9.0D+00
   Bfn.  Coefficient  Atom+Function         Bfn.  Coefficient  Atom+Function  
  ----- ------------  ---------------      ----- ------------  ---------------
   338      0.248795  20 O  pz              393      0.225654  23 C  s         
   334      0.209637  20 O  s               400      0.178526  23 C  pz        
   594     -0.176532  36 C  s         

 Vector   52  Occ=2.000000D+00  E=-6.518401D-01
              MO Center= -6.6D-01,  1.9D+00, -2.4D-01, r^2= 1.5D+01
   Bfn.  Coefficient  Atom+Function         Bfn.  Coefficient  Atom+Function  
  ----- ------------  ---------------      ----- ------------  ---------------
    58      0.210176   5 C  py               56      0.184746   5 C  s         
    84      0.180769   6 O  pz               13     -0.176431   2 C  s         
    80     -0.163951   6 O  s                82     -0.153121   6 O  px        
    16     -0.150370   2 C  pz        

 Vector   53  Occ=2.000000D+00  E=-6.429692D-01
              MO Center=  6.2D-01,  1.7D+00, -3.4D-01, r^2= 8.7D+00
   Bfn.  Coefficient  Atom+Function         Bfn.  Coefficient  Atom+Function  
  ----- ------------  ---------------      ----- ------------  ---------------
   245     -0.226951  15 O  pz              173      0.207341  11 C  s         
   241      0.169227  15 O  s               196      0.167386  12 H  s         
   176      0.158076  11 C  py              107     -0.156989   7 N  px        

 Vector   54  Occ=2.000000D+00  E=-6.335518D-01
              MO Center=  1.7D-02, -1.7D-01, -3.4D-01, r^2= 1.4D+01
   Bfn.  Coefficient  Atom+Function         Bfn.  Coefficient  Atom+Function  
  ----- ------------  ---------------      ----- ------------  ---------------
   400      0.200965  23 C  pz              393      0.177019  23 C  s         
   451      0.158393  26 H  s               173      0.152459  11 C  s         

 Vector   55  Occ=2.000000D+00  E=-6.208489D-01
              MO Center= -9.0D-01,  3.5D+00,  2.5D-01, r^2= 9.0D+00
   Bfn.  Coefficient  Atom+Function         Bfn.  Coefficient  Atom+Function  
  ----- ------------  ---------------      ----- ------------  ---------------
   173      0.374235  11 C  s               217     -0.250024  14 C  s         
   595      0.233765  36 C  s                14     -0.211529   2 C  px        
   139     -0.211481   9 C  s                44      0.173784   4 H  s         
    59     -0.169313   5 C  pz                1     -0.166113   1 H  s         
   318      0.164868  19 C  py               56     -0.151792   5 C  s         

 Vector   56  Occ=2.000000D+00  E=-6.092554D-01
              MO Center= -4.9D-01, -2.0D+00, -3.8D-01, r^2= 1.5D+01
   Bfn.  Coefficient  Atom+Function         Bfn.  Coefficient  Atom+Function  
  ----- ------------  ---------------      ----- ------------  ---------------
   594     -0.295063  36 C  s               393      0.282329  23 C  s         
   470     -0.228585  28 C  s               545     -0.222571  32 C  py        
   494      0.217881  29 H  s               565     -0.194947  33 H  s         
   400      0.184916  23 C  pz              621      0.185276  37 O  px        
   574      0.172772  34 H  s               399     -0.166178  23 C  py        

 Vector   57  Occ=2.000000D+00  E=-6.026266D-01
              MO Center= -4.6D-01, -1.7D+00, -3.8D-02, r^2= 1.3D+01
   Bfn.  Coefficient  Atom+Function         Bfn.  Coefficient  Atom+Function  
  ----- ------------  ---------------      ----- ------------  ---------------
   417      0.251842  24 H  s               621     -0.222827  37 O  px        
   584      0.193451  35 H  s               545     -0.191530  32 C  py        
   583      0.183098  35 H  s               619     -0.170617  37 O  s         
   565     -0.168322  33 H  s               173      0.163965  11 C  s         
    56     -0.162874   5 C  s               596      0.163175  36 C  px        

 Vector   58  Occ=2.000000D+00  E=-6.003441D-01
              MO Center= -8.4D-01, -2.7D+00, -6.5D-01, r^2= 1.3D+01
   Bfn.  Coefficient  Atom+Function         Bfn.  Coefficient  Atom+Function  
  ----- ------------  ---------------      ----- ------------  ---------------
   574     -0.264781  34 H  s               471      0.261119  28 C  s         
   546      0.215133  32 C  pz              544     -0.191468  32 C  px        
   584      0.190755  35 H  s               427     -0.185754  25 C  s         
   393      0.167461  23 C  s               470      0.165865  28 C  s         
   594     -0.160509  36 C  s               400      0.153562  23 C  pz        

 Vector   59  Occ=2.000000D+00  E=-5.946251D-01
              MO Center=  8.9D-01,  1.8D+00, -3.3D-01, r^2= 8.3D+00
   Bfn.  Coefficient  Atom+Function         Bfn.  Coefficient  Atom+Function  
  ----- ------------  ---------------      ----- ------------  ---------------
   220      0.253251  14 C  pz              243     -0.206050  15 O  px        
   244     -0.183732  15 O  py              338     -0.173938  20 O  pz        
   360     -0.171027  21 N  s               269     -0.167884  16 N  py        

 Vector   60  Occ=2.000000D+00  E=-5.852024D-01
              MO Center= -7.2D-01,  4.9D-01, -3.0D-01, r^2= 1.6D+01
   Bfn.  Coefficient  Atom+Function         Bfn.  Coefficient  Atom+Function  
  ----- ------------  ---------------      ----- ------------  ---------------
   393      0.200412  23 C  s               545     -0.175477  32 C  py        
   584      0.175146  35 H  s               565     -0.154915  33 H  s         

 Vector   61  Occ=2.000000D+00  E=-5.796075D-01
              MO Center=  2.5D-01, -2.3D-02, -2.4D-01, r^2= 1.3D+01
   Bfn.  Coefficient  Atom+Function         Bfn.  Coefficient  Atom+Function  
  ----- ------------  ---------------      ----- ------------  ---------------
   173      0.207070  11 C  s               245      0.190569  15 O  pz        
   400      0.156860  23 C  pz              219     -0.150969  14 C  py        

 Vector   62  Occ=2.000000D+00  E=-5.685469D-01
              MO Center=  4.7D-01, -1.2D+00,  5.3D-01, r^2= 1.2D+01
   Bfn.  Coefficient  Atom+Function         Bfn.  Coefficient  Atom+Function  
  ----- ------------  ---------------      ----- ------------  ---------------
   597      0.187774  36 C  py              622      0.184953  37 O  py        
   173      0.179632  11 C  s               494     -0.177813  29 H  s         
   647      0.174977  38 N  py              427      0.170096  25 C  s         
   474      0.151099  28 C  pz        

 Vector   63  Occ=2.000000D+00  E=-5.614434D-01
              MO Center= -1.1D+00,  3.8D+00, -4.4D-02, r^2= 9.1D+00
   Bfn.  Coefficient  Atom+Function         Bfn.  Coefficient  Atom+Function  
  ----- ------------  ---------------      ----- ------------  ---------------
    36      0.238358   3 H  s                84     -0.225190   6 O  pz        
    35      0.195336   3 H  s                16     -0.183560   2 C  pz        
    59      0.181344   5 C  pz               83      0.173419   6 O  py        
    44     -0.170425   4 H  s                15      0.156405   2 C  py        

 Vector   64  Occ=2.000000D+00  E=-5.569970D-01
              MO Center= -5.2D-01, -9.4D-02, -2.1D-01, r^2= 1.7D+01
   Bfn.  Coefficient  Atom+Function         Bfn.  Coefficient  Atom+Function  
  ----- ------------  ---------------      ----- ------------  ---------------
   470      0.217840  28 C  s               417     -0.183432  24 H  s         
   476      0.170386  28 C  py              459     -0.166372  27 H  s         
   584      0.165220  35 H  s               416     -0.158141  24 H  s         
     1      0.153338   1 H  s         

 Vector   65  Occ=2.000000D+00  E=-5.503701D-01
              MO Center= -3.5D-01,  3.1D-02, -4.6D-01, r^2= 1.8D+01
   Bfn.  Coefficient  Atom+Function         Bfn.  Coefficient  Atom+Function  
  ----- ------------  ---------------      ----- ------------  ---------------
   476      0.240528  28 C  py              451     -0.212958  26 H  s         
   470      0.195842  28 C  s               450     -0.184816  26 H  s         
    15     -0.178662   2 C  py              473      0.176409  28 C  py        
    35     -0.174956   3 H  s               430     -0.158764  25 C  py        
   594     -0.157080  36 C  s               400      0.152976  23 C  pz        

 Vector   66  Occ=2.000000D+00  E=-5.445591D-01
              MO Center= -7.5D-01,  8.3D-01, -2.4D-01, r^2= 1.9D+01
   Bfn.  Coefficient  Atom+Function         Bfn.  Coefficient  Atom+Function  
  ----- ------------  ---------------      ----- ------------  ---------------
   470      0.333278  28 C  s               476      0.271908  28 C  py        
    35      0.216684   3 H  s                15      0.215352   2 C  py        
   473      0.185946  28 C  py              427     -0.174291  25 C  s         
   430     -0.160697  25 C  py              450     -0.160920  26 H  s         

 Vector   67  Occ=2.000000D+00  E=-5.283681D-01
              MO Center= -6.1D-01,  1.1D+00,  3.9D-01, r^2= 1.0D+01
   Bfn.  Coefficient  Atom+Function         Bfn.  Coefficient  Atom+Function  
  ----- ------------  ---------------      ----- ------------  ---------------
   336      0.234191  20 O  px              427     -0.215205  25 C  s         
   339      0.179750  20 O  px              393      0.170138  23 C  s         
   311      0.160869  19 C  px        

 Vector   68  Occ=2.000000D+00  E=-5.259427D-01
              MO Center=  7.5D-01,  1.7D+00, -3.3D-02, r^2= 7.2D+00
   Bfn.  Coefficient  Atom+Function         Bfn.  Coefficient  Atom+Function  
  ----- ------------  ---------------      ----- ------------  ---------------
   163      0.278067  10 H  s               217      0.234279  14 C  s         
   206      0.233085  13 H  s               197     -0.227939  12 H  s         
   196     -0.200557  12 H  s               173      0.170877  11 C  s         
   205      0.168778  13 H  s               244      0.167879  15 O  py        
   337     -0.168707  20 O  py              177      0.166362  11 C  pz        

 Vector   69  Occ=2.000000D+00  E=-5.178988D-01
              MO Center=  2.3D-01, -2.1D+00, -2.4D-01, r^2= 6.0D+00
   Bfn.  Coefficient  Atom+Function         Bfn.  Coefficient  Atom+Function  
  ----- ------------  ---------------      ----- ------------  ---------------
   431     -0.253710  25 C  pz              397      0.242254  23 C  pz        
   399      0.193453  23 C  py              494     -0.191773  29 H  s         
   430     -0.169454  25 C  py              433     -0.156796  25 C  py        
   395     -0.153978  23 C  px        

 Vector   70  Occ=2.000000D+00  E=-4.985665D-01
              MO Center= -6.9D-01,  1.2D+00, -3.3D-01, r^2= 1.7D+01
   Bfn.  Coefficient  Atom+Function         Bfn.  Coefficient  Atom+Function  
  ----- ------------  ---------------      ----- ------------  ---------------
    82      0.182123   6 O  px              460     -0.164582  27 H  s         
   519     -0.151681  31 S  px        

 Vector   71  Occ=2.000000D+00  E=-4.968314D-01
              MO Center= -4.6D-01, -1.5D+00, -4.6D-01, r^2= 1.5D+01
   Bfn.  Coefficient  Atom+Function         Bfn.  Coefficient  Atom+Function  
  ----- ------------  ---------------      ----- ------------  ---------------
   460      0.246967  27 H  s               503     -0.228544  30 H  s         
   519      0.197624  31 S  px              472     -0.193134  28 C  px        
   417      0.187841  24 H  s               502     -0.183023  30 H  s         
   451     -0.176826  26 H  s               429      0.170268  25 C  px        
   544     -0.163595  32 C  px              427     -0.162123  25 C  s         

 Vector   72  Occ=2.000000D+00  E=-4.431550D-01
              MO Center= -6.7D-01, -3.8D+00, -1.2D-01, r^2= 6.0D+00
   Bfn.  Coefficient  Atom+Function         Bfn.  Coefficient  Atom+Function  
  ----- ------------  ---------------      ----- ------------  ---------------
   514      0.375344  31 S  s               521      0.341299  31 S  pz        
   524      0.229646  31 S  pz              427     -0.227970  25 C  s         
   584     -0.225808  35 H  s               475      0.203911  28 C  px        
   503     -0.179354  30 H  s               546     -0.171088  32 C  pz        
   476      0.169607  28 C  py              549     -0.154790  32 C  pz        

 Vector   73  Occ=2.000000D+00  E=-4.384078D-01
              MO Center=  3.4D-01,  9.6D-01,  9.1D-02, r^2= 6.7D+00
   Bfn.  Coefficient  Atom+Function         Bfn.  Coefficient  Atom+Function  
  ----- ------------  ---------------      ----- ------------  ---------------
   337      0.340421  20 O  py              340      0.277268  20 O  py        
   243     -0.229630  15 O  px              244      0.196319  15 O  py        
   246     -0.188374  15 O  px              623     -0.167206  37 O  pz        
   361     -0.162422  21 N  px              247      0.153903  15 O  py        

 Vector   74  Occ=2.000000D+00  E=-4.353198D-01
              MO Center=  1.3D+00,  4.8D-02, -1.2D-01, r^2= 8.0D+00
   Bfn.  Coefficient  Atom+Function         Bfn.  Coefficient  Atom+Function  
  ----- ------------  ---------------      ----- ------------  ---------------
   243      0.343141  15 O  px              623     -0.296998  37 O  pz        
   246      0.278848  15 O  px              626     -0.233024  37 O  pz        
   267     -0.189565  16 N  s               360      0.164531  21 N  s         
   601      0.165334  36 C  pz        

 Vector   75  Occ=2.000000D+00  E=-4.272044D-01
              MO Center=  4.2D-01,  4.4D-01,  2.0D-01, r^2= 7.3D+00
   Bfn.  Coefficient  Atom+Function         Bfn.  Coefficient  Atom+Function  
  ----- ------------  ---------------      ----- ------------  ---------------
   337      0.353149  20 O  py              340      0.285550  20 O  py        
   243      0.281620  15 O  px              173     -0.266395  11 C  s         
   246      0.232322  15 O  px              623      0.229476  37 O  pz        
   626      0.180272  37 O  pz        

 Vector   76  Occ=2.000000D+00  E=-4.164302D-01
              MO Center=  1.8D+00,  2.9D-02,  3.8D-01, r^2= 7.8D+00
   Bfn.  Coefficient  Atom+Function         Bfn.  Coefficient  Atom+Function  
  ----- ------------  ---------------      ----- ------------  ---------------
   269     -0.256105  16 N  py              244      0.254434  15 O  py        
   267     -0.253305  16 N  s               647     -0.228104  38 N  py        
   272     -0.215924  16 N  py              217      0.211315  14 C  s         
   247      0.207915  15 O  py              650     -0.199933  38 N  py        
   623      0.197673  37 O  pz              271     -0.165712  16 N  px        

 Vector   77  Occ=2.000000D+00  E=-4.149924D-01
              MO Center=  1.4D+00, -6.8D-01,  9.4D-01, r^2= 7.6D+00
   Bfn.  Coefficient  Atom+Function         Bfn.  Coefficient  Atom+Function  
  ----- ------------  ---------------      ----- ------------  ---------------
   622      0.310740  37 O  py              625      0.258322  37 O  py        
   647     -0.208003  38 N  py              650     -0.199230  38 N  py        
   269      0.190017  16 N  py              648     -0.185537  38 N  pz        
   621     -0.176598  37 O  px              646      0.176858  38 N  px        
   393      0.168464  23 C  s               244     -0.156854  15 O  py        

 Vector   78  Occ=2.000000D+00  E=-4.139782D-01
              MO Center= -1.1D+00,  4.5D+00, -6.3D-01, r^2= 3.8D+00
   Bfn.  Coefficient  Atom+Function         Bfn.  Coefficient  Atom+Function  
  ----- ------------  ---------------      ----- ------------  ---------------
    13      0.528282   2 C  s                83      0.417412   6 O  py        
    86      0.336973   6 O  py               82     -0.330925   6 O  px        
    56     -0.279692   5 C  s                85     -0.259830   6 O  px        
   105      0.250026   7 N  s                64     -0.240173   5 C  py        
   148     -0.198292   9 C  py               63      0.196078   5 C  px        

 Vector   79  Occ=2.000000D+00  E=-3.984570D-01
              MO Center= -8.4D-02,  5.7D-01,  1.8D-01, r^2= 6.5D+00
   Bfn.  Coefficient  Atom+Function         Bfn.  Coefficient  Atom+Function  
  ----- ------------  ---------------      ----- ------------  ---------------
   361      0.279040  21 N  px              364      0.250109  21 N  px        
   393      0.219103  23 C  s               336     -0.213835  20 O  px        
   595      0.205631  36 C  s               363      0.192019  21 N  pz        
   366      0.180272  21 N  pz              623     -0.178858  37 O  pz        
   601      0.176771  36 C  pz              339     -0.172485  20 O  px        

 Vector   80  Occ=2.000000D+00  E=-3.893356D-01
              MO Center= -6.5D-01,  2.7D+00, -9.4D-02, r^2= 6.0D+00
   Bfn.  Coefficient  Atom+Function         Bfn.  Coefficient  Atom+Function  
  ----- ------------  ---------------      ----- ------------  ---------------
   107      0.306832   7 N  px              110      0.278035   7 N  px        
    82     -0.224655   6 O  px              109      0.199957   7 N  pz        
   361      0.181956  21 N  px              112      0.176265   7 N  pz        
    85     -0.174669   6 O  px              364      0.164685  21 N  px        
    84     -0.152282   6 O  pz              108      0.152856   7 N  py        

 Vector   81  Occ=2.000000D+00  E=-3.545300D-01
              MO Center= -1.0D+00, -4.5D+00, -1.9D-01, r^2= 2.6D+00
   Bfn.  Coefficient  Atom+Function         Bfn.  Coefficient  Atom+Function  
  ----- ------------  ---------------      ----- ------------  ---------------
   520      0.472691  31 S  py              523      0.474744  31 S  py        
   427     -0.190119  25 C  s               524      0.170148  31 S  pz        
   575      0.165878  34 H  s               519     -0.154313  31 S  px        

 Vector   82  Occ=0.000000D+00  E= 3.005516D-02
              MO Center= -3.7D-02, -3.5D+00, -6.5D-01, r^2= 3.7D+01
   Bfn.  Coefficient  Atom+Function         Bfn.  Coefficient  Atom+Function  
  ----- ------------  ---------------      ----- ------------  ---------------
   595      3.737231  36 C  s               543      3.519584  32 C  s         
   217      3.162503  14 C  s               645     -2.314623  38 N  s         
   471     -2.134893  28 C  s               495     -2.102100  29 H  s         
   267     -1.974361  16 N  s               428      1.942495  25 C  s         
   479     -1.944659  28 C  py              318     -1.852225  19 C  py        

 Vector   83  Occ=0.000000D+00  E= 3.361153D-02
              MO Center=  6.6D-01, -1.0D+00,  4.6D-01, r^2= 4.7D+01
   Bfn.  Coefficient  Atom+Function         Bfn.  Coefficient  Atom+Function  
  ----- ------------  ---------------      ----- ------------  ---------------
   217      4.365139  14 C  s               267     -3.235415  16 N  s         
    56      2.339158   5 C  s               543     -2.266829  32 C  s         
   403      1.992261  23 C  pz              148      1.750479   9 C  py        
   224      1.588177  14 C  px              300     -1.499396  18 H  s         
   418     -1.475874  24 H  s               678     -1.477420  40 H  s         

 Vector   84  Occ=0.000000D+00  E= 3.745392D-02
              MO Center= -1.1D+00,  6.3D-01,  7.0D-01, r^2= 5.1D+01
   Bfn.  Coefficient  Atom+Function         Bfn.  Coefficient  Atom+Function  
  ----- ------------  ---------------      ----- ------------  ---------------
   471      6.074884  28 C  s               148      3.905814   9 C  py        
    64      2.777765   5 C  py              595     -2.652389  36 C  s         
   402      2.441376  23 C  py               63     -2.368080   5 C  px        
   495      2.374923  29 H  s               479      2.316361  28 C  py        
   645      2.318259  38 N  s               504      2.262913  30 H  s         

 Vector   85  Occ=0.000000D+00  E= 3.950432D-02
              MO Center=  7.4D-01, -2.6D+00,  1.5D+00, r^2= 3.7D+01
   Bfn.  Coefficient  Atom+Function         Bfn.  Coefficient  Atom+Function  
  ----- ------------  ---------------      ----- ------------  ---------------
   645      4.263602  38 N  s               604     -2.701811  36 C  pz        
   603      2.252600  36 C  py              678      1.964456  40 H  s         
   217      1.920329  14 C  s               585      1.928518  35 H  s         
   461     -1.787708  27 H  s               669      1.693756  39 H  s         
   267     -1.656281  16 N  s               403     -1.556754  23 C  pz        

 Vector   86  Occ=0.000000D+00  E= 4.362503D-02
              MO Center= -2.1D-01,  6.5D-01,  4.2D-01, r^2= 5.8D+01
   Bfn.  Coefficient  Atom+Function         Bfn.  Coefficient  Atom+Function  
[...]
   480      4.987971  28 C  pz              115     -4.693664   7 N  pz        

 Vector  201  Occ=0.000000D+00  E= 4.465434D-01
              MO Center= -5.5D-01,  2.0D+00,  3.3D-01, r^2= 2.9D+01
   Bfn.  Coefficient  Atom+Function         Bfn.  Coefficient  Atom+Function  
  ----- ------------  ---------------      ----- ------------  ---------------
   147      8.490439   9 C  px              217     -8.234820  14 C  s         
    56      7.618066   5 C  s               181     -6.283350  11 C  px        
   174     -5.825541  11 C  s               206      5.797642  13 H  s         
   148     -5.380376   9 C  py              173     -5.364581  11 C  s         
     2     -5.210898   1 H  s               207      4.883106  13 H  s         

 Vector  202  Occ=0.000000D+00  E= 4.490856D-01
              MO Center= -5.4D-01,  1.0D+00,  3.4D-01, r^2= 2.4D+01
   Bfn.  Coefficient  Atom+Function         Bfn.  Coefficient  Atom+Function  
  ----- ------------  ---------------      ----- ------------  ---------------
   471     -9.668390  28 C  s               217      9.212358  14 C  s         
   206     -8.424435  13 H  s               173      8.294826  11 C  s         
   147      6.622805   9 C  px              174     -6.589963  11 C  s         
   114     -5.227987   7 N  py              181     -5.003408  11 C  px        
    36      4.509006   3 H  s               197     -4.530769  12 H  s         

 Vector  203  Occ=0.000000D+00  E= 4.516071D-01
              MO Center= -5.2D-01,  2.1D-01, -6.7D-02, r^2= 2.8D+01
   Bfn.  Coefficient  Atom+Function         Bfn.  Coefficient  Atom+Function  
  ----- ------------  ---------------      ----- ------------  ---------------
    13     14.236724   2 C  s               595     14.122936  36 C  s         
    56    -13.540287   5 C  s               174     12.413909  11 C  s         
   471     -9.804310  28 C  s               645     -9.471825  38 N  s         
   318     -7.705509  19 C  py              217     -7.287330  14 C  s         
   403     -6.853458  23 C  pz              603     -6.870919  36 C  py        

 Vector  204  Occ=0.000000D+00  E= 4.541257D-01
              MO Center= -6.4D-02, -6.0D-01, -9.6D-02, r^2= 2.5D+01
   Bfn.  Coefficient  Atom+Function         Bfn.  Coefficient  Atom+Function  
  ----- ------------  ---------------      ----- ------------  ---------------
   471     20.307717  28 C  s               217    -13.161582  14 C  s         
   148     11.769135   9 C  py              402     10.178534  23 C  py        
    56     -9.649029   5 C  s               515     -6.050611  31 S  s         
   360      5.990938  21 N  s               394     -5.848179  23 C  s         
   595     -5.833704  36 C  s               542      5.743445  32 C  s         

 Vector  205  Occ=0.000000D+00  E= 4.576631D-01
              MO Center=  9.6D-02,  8.2D-01, -4.5D-01, r^2= 2.6D+01
   Bfn.  Coefficient  Atom+Function         Bfn.  Coefficient  Atom+Function  
  ----- ------------  ---------------      ----- ------------  ---------------
   267     12.910621  16 N  s               595     10.546162  36 C  s         
   147     -9.704389   9 C  px              360     -9.348035  21 N  s         
   148     -8.945311   9 C  py              226     -8.270732  14 C  pz        
   317      7.026142  19 C  px              114      6.851649   7 N  py        
   224     -6.598340  14 C  px              368     -5.962328  21 N  py        

 Vector  206  Occ=0.000000D+00  E= 4.618619D-01
              MO Center= -4.0D-01, -6.6D-01,  1.3D-02, r^2= 2.6D+01
   Bfn.  Coefficient  Atom+Function         Bfn.  Coefficient  Atom+Function  
  ----- ------------  ---------------      ----- ------------  ---------------
    56     18.047787   5 C  s               645    -18.035310  38 N  s         
   360    -13.812034  21 N  s               147     10.340143   9 C  px        
   148     -9.764648   9 C  py              174     -9.785679  11 C  s         
   114     -8.557113   7 N  py               13     -7.931878   2 C  s         
   428      7.816148  25 C  s               106      7.745843   7 N  s         

 Vector  207  Occ=0.000000D+00  E= 4.655521D-01
              MO Center=  2.7D-01, -3.7D-01, -1.1D-01, r^2= 2.6D+01
   Bfn.  Coefficient  Atom+Function         Bfn.  Coefficient  Atom+Function  
  ----- ------------  ---------------      ----- ------------  ---------------
   267     14.979353  16 N  s               471    -11.126051  28 C  s         
   402    -10.660171  23 C  py              217    -10.232527  14 C  s         
   360      9.236582  21 N  s               148     -8.647487   9 C  py        
   106      7.157698   7 N  s                13     -7.081721   2 C  s         
   225      7.075113  14 C  py              114      6.829569   7 N  py        

 Vector  208  Occ=0.000000D+00  E= 4.712046D-01
              MO Center= -4.7D-01, -9.9D-02, -1.9D-01, r^2= 2.7D+01
   Bfn.  Coefficient  Atom+Function         Bfn.  Coefficient  Atom+Function  
  ----- ------------  ---------------      ----- ------------  ---------------
   148     20.925108   9 C  py              318    -16.799244  19 C  py        
   147    -12.917393   9 C  px              368     10.360065  21 N  py        
   217      9.402937  14 C  s                13     -9.079397   2 C  s         
   149     -7.890289   9 C  pz              543     -7.814225  32 C  s         
   360      7.000686  21 N  s               206      6.687301  13 H  s         

 Vector  209  Occ=0.000000D+00  E= 4.757593D-01
              MO Center=  7.5D-02, -2.7D-01, -3.1D-01, r^2= 2.4D+01
   Bfn.  Coefficient  Atom+Function         Bfn.  Coefficient  Atom+Function  
  ----- ------------  ---------------      ----- ------------  ---------------
   267     -9.630798  16 N  s               147      8.849284   9 C  px        
   224      7.155813  14 C  px              384      7.070083  22 H  s         
   360      6.561605  21 N  s               418     -6.509840  24 H  s         
   402     -5.514524  23 C  py              394      5.136421  23 C  s         
   226      4.848853  14 C  pz              318     -4.757869  19 C  py        

 Vector  210  Occ=0.000000D+00  E= 4.782450D-01
              MO Center= -7.6D-02, -9.2D-01, -1.0D-01, r^2= 2.4D+01
   Bfn.  Coefficient  Atom+Function         Bfn.  Coefficient  Atom+Function  
  ----- ------------  ---------------      ----- ------------  ---------------
   173      9.203084  11 C  s               217      8.261847  14 C  s         
   595     -8.263017  36 C  s               197     -6.983787  12 H  s         
   427     -6.297322  25 C  s               206     -5.932746  13 H  s         
   318      5.468699  19 C  py              471      5.493025  28 C  s         
   620      5.387767  37 O  s               182      5.349144  11 C  py        

 Vector  211  Occ=0.000000D+00  E= 4.803064D-01
              MO Center= -2.3D-02, -1.4D+00, -3.2D-01, r^2= 2.5D+01
   Bfn.  Coefficient  Atom+Function         Bfn.  Coefficient  Atom+Function  
  ----- ------------  ---------------      ----- ------------  ---------------
   543     11.768006  32 C  s                13     -9.393243   2 C  s         
    56      8.537417   5 C  s               542      7.576022  32 C  s         
   566     -6.080742  33 H  s               471     -5.962471  28 C  s         
   267     -5.861718  16 N  s               174     -5.782497  11 C  s         
    64      5.216205   5 C  py              575     -5.164778  34 H  s         

 Vector  212  Occ=0.000000D+00  E= 4.811895D-01
              MO Center=  1.7D-02, -9.6D-01, -7.2D-01, r^2= 2.5D+01
   Bfn.  Coefficient  Atom+Function         Bfn.  Coefficient  Atom+Function  
  ----- ------------  ---------------      ----- ------------  ---------------
   471     20.088392  28 C  s               267     14.011709  16 N  s         
   403     12.726243  23 C  pz               13    -11.220487   2 C  s         
   217    -10.557659  14 C  s               147      9.032450   9 C  px        
   436      8.424492  25 C  py              360     -8.042608  21 N  s         
   181     -7.185740  11 C  px              402      6.818718  23 C  py        

 Vector  213  Occ=0.000000D+00  E= 4.884709D-01
              MO Center= -1.4D-02,  1.7D+00,  3.5D-02, r^2= 2.5D+01
   Bfn.  Coefficient  Atom+Function         Bfn.  Coefficient  Atom+Function  
  ----- ------------  ---------------      ----- ------------  ---------------
    56     24.454753   5 C  s               174    -12.734876  11 C  s         
   197     11.198750  12 H  s               114    -10.198861   7 N  py        
   471     -9.923003  28 C  s               173     -9.711881  11 C  s         
   402     -9.327152  23 C  py              148     -8.802595   9 C  py        
   206      7.857033  13 H  s               428      6.869711  25 C  s         

 Vector  214  Occ=0.000000D+00  E= 4.906462D-01
              MO Center=  7.1D-01, -3.8D-01,  2.5D-01, r^2= 2.3D+01
   Bfn.  Coefficient  Atom+Function         Bfn.  Coefficient  Atom+Function  
  ----- ------------  ---------------      ----- ------------  ---------------
   595      9.432248  36 C  s               471     -7.550944  28 C  s         
   318     -7.132404  19 C  py              470     -6.856054  28 C  s         
   494      6.406345  29 H  s               106      6.317330   7 N  s         
   360     -5.418993  21 N  s               147      4.996844   9 C  px        
   393      4.990341  23 C  s               427      4.813197  25 C  s         

 Vector  215  Occ=0.000000D+00  E= 4.939438D-01
              MO Center= -2.5D-01, -8.8D-01, -4.0D-01, r^2= 2.5D+01
   Bfn.  Coefficient  Atom+Function         Bfn.  Coefficient  Atom+Function  
  ----- ------------  ---------------      ----- ------------  ---------------
   471     26.680085  28 C  s                13    -24.000229   2 C  s         
   217     19.460668  14 C  s                56     19.197911   5 C  s         
   360    -10.000878  21 N  s               595     -9.533531  36 C  s         
   494     -9.148808  29 H  s                63     -7.949431   5 C  px        
   436      7.882641  25 C  py              403      6.779655  23 C  pz        

 Vector  216  Occ=0.000000D+00  E= 4.985922D-01
              MO Center=  2.8D-01,  7.8D-01,  8.5D-02, r^2= 2.6D+01
   Bfn.  Coefficient  Atom+Function         Bfn.  Coefficient  Atom+Function  
  ----- ------------  ---------------      ----- ------------  ---------------
   217     16.341635  14 C  s               148    -10.592113   9 C  py        
   471     -8.920171  28 C  s               360     -6.978300  21 N  s         
   494      6.218496  29 H  s                12      5.001651   2 C  s         
   182      4.681866  11 C  py              384     -4.628861  22 H  s         
    13     -4.445916   2 C  s               242     -4.414298  15 O  s         

 Vector  217  Occ=0.000000D+00  E= 5.019404D-01
              MO Center= -4.0D-02,  5.3D-02,  9.4D-02, r^2= 2.4D+01
   Bfn.  Coefficient  Atom+Function         Bfn.  Coefficient  Atom+Function  
  ----- ------------  ---------------      ----- ------------  ---------------
    13     19.008016   2 C  s               217    -11.601655  14 C  s         
    56     -9.757408   5 C  s                64     -8.492097   5 C  py        
   267      8.331668  16 N  s                63      7.801815   5 C  px        
   403      7.643575  23 C  pz              543      7.327551  32 C  s         
    12      7.266389   2 C  s               139      6.472815   9 C  s         


 center of mass
 --------------
 x =   0.02431661 y =   0.02273562 z =   0.01225941

 moments of inertia (a.u.)
 ------------------
       11858.337559978299          -0.000000000001           0.000000000001
          -0.000000000001        3730.164419345533           0.000000000001
           0.000000000001           0.000000000001       13292.036109301114

  Mulliken analysis of the total density
  --------------------------------------

    Atom       Charge   Shell Charges
 -----------   ------   -------------------------------------------------------
    1 H    1     0.83   0.76  0.09  0.01  0.03 -0.07
    2 C    6     6.52   2.01  0.66  0.30  0.31  2.06  1.03 -0.03  0.06  0.12
    3 H    1     0.97   0.76  0.22  0.01  0.03 -0.06
    4 H    1     0.81   0.76  0.07  0.01  0.03 -0.06
    5 C    6     4.91   2.01  0.68  0.09 -0.19  1.90  0.33 -0.15  0.24  0.00
    6 O    8     8.72   2.01  0.82  0.99  0.15  2.79  1.82  0.14  0.01 -0.02
    7 N    7     7.60   2.01  0.72  0.90 -0.09  2.46  1.44  0.07  0.05  0.04
    8 H    1     1.00   0.75  0.22  0.00  0.06 -0.03
    9 C    6     6.10   2.01  0.66  0.08  0.02  2.00  1.13  0.07  0.14  0.01
   10 H    1     1.17   0.77  0.35  0.00  0.03  0.01
   11 C    6     6.51   2.01  0.67  0.52  0.09  2.05  0.92 -0.01  0.09  0.18
   12 H    1     0.78   0.76  0.08  0.00  0.03 -0.09
   13 H    1     0.89   0.78  0.17 -0.02  0.03 -0.07
   14 C    6     4.52   2.01  0.68  0.00  0.09  1.90 -0.17 -0.01  0.24 -0.23
   15 O    8     8.84   2.01  0.81  1.03  0.15  2.81  1.87  0.14  0.02 -0.00
   16 N    7     7.30   2.01  0.72  0.83 -0.10  2.47  1.26  0.07  0.04 -0.00
   17 H    1     0.97   0.75  0.19 -0.01  0.06 -0.02
   18 H    1     0.97   0.76  0.20 -0.00  0.05 -0.04
   19 C    6     4.76   2.01  0.68  0.10  0.03  1.89  0.09  0.04  0.23 -0.31
   20 O    8     8.89   2.01  0.82  1.03  0.19  2.79  1.88  0.17  0.01 -0.00
   21 N    7     7.32   2.01  0.72  0.91 -0.15  2.45  1.48 -0.19  0.05  0.05
   22 H    1     0.85   0.74  0.21 -0.05  0.06 -0.10
   23 C    6     6.20   2.01  0.66  0.22  0.04  2.00  1.01  0.17  0.14 -0.06
   24 H    1     1.16   0.79  0.36 -0.02  0.03  0.01
   25 C    6     6.39   2.01  0.66  0.56  0.06  2.03  0.68  0.05  0.09  0.24
   26 H    1     1.03   0.79  0.34 -0.02  0.03 -0.11
   27 H    1     0.98   0.78  0.27  0.02  0.03 -0.11
   28 C    6     5.41   2.01  0.66  0.01 -0.31  1.99  1.06  0.02  0.10 -0.13
   29 H    1     1.18   0.77  0.43 -0.01  0.03 -0.04
   30 H    1     1.11   0.77  0.35 -0.01  0.03 -0.03
   31 S   16    15.47   2.00  2.03  0.86  0.71  0.10  6.00  2.31  1.47  0.07  0.12 -0.20
   32 C    6     5.91   2.01  0.65  0.37 -0.06  2.00  0.93 -0.02  0.07 -0.03
   33 H    1     1.07   0.76  0.25  0.02  0.03  0.01
   34 H    1     1.04   0.76  0.25  0.01  0.03 -0.01
   35 H    1     1.19   0.76  0.44 -0.00  0.03 -0.03
   36 C    6     4.50   2.01  0.68 -0.03  0.15  1.89 -0.25  0.01  0.23 -0.19
   37 O    8     8.90   2.01  0.82  1.06  0.18  2.79  1.87  0.15  0.01  0.01
   38 N    7     7.32   2.01  0.72  0.86 -0.11  2.46  1.26  0.08  0.04 -0.00
   39 H    1     0.93   0.75  0.18 -0.01  0.06 -0.05
   40 H    1     0.97   0.75  0.20 -0.01  0.05 -0.02

       Multipole analysis of the density wrt the origin
       ------------------------------------------------

     L   x y z        total         open         nuclear
     -   - - -        -----         ----         -------
     0   0 0 0      0.000000      0.000000    162.000000

     1   1 0 0      0.065179      0.000000     -0.000000
     1   0 1 0     -1.504549      0.000000     -0.000000
     1   0 0 1      0.927327      0.000000     -0.000000

     2   2 0 0    -87.187258      0.000000   1438.857055
     2   1 1 0      2.756760      0.000000    -10.472082
     2   1 0 1      4.254973      0.000000      9.444345
     2   0 2 0    -95.888888      0.000000   5816.631021
     2   0 1 1     16.784710      0.000000     74.760670
     2   0 0 2    -96.513587      0.000000    650.558056


 Task  times  cpu:     6188.6s     wall:     6218.8s


                                NWChem Input Module
                                -------------------


 Summary of allocated global arrays
-----------------------------------
  No active global arrays


MA_summarize_allocated_blocks: starting scan ...
MA_summarize_allocated_blocks: scan completed: 0 heap blocks, 0 stack blocks
MA usage statistics:

	allocation statistics:
					      heap	     stack
					      ----	     -----
	current number of blocks	         0	         0
	maximum number of blocks	        16	        14
	current total bytes		         0	         0
	maximum total bytes		    156872	  37111464
	maximum total K-bytes		       157	     37112
	maximum total M-bytes		         1	        38


                                     CITATION
                                     --------
                Please cite the following reference when publishing
                           results obtained with NWChem:

          E. Apra, E. J. Bylaska, W. A. de Jong, N. Govind, K. Kowalski,
       T. P. Straatsma, M. Valiev, H. J. J. van Dam, Y. Alexeev, J. Anchell,
       V. Anisimov, F. W. Aquino, R. Atta-Fynn, J. Autschbach, N. P. Bauman,
     J. C. Becca, D. E. Bernholdt, K. Bhaskaran-Nair, S. Bogatko, P. Borowski,
         J. Boschen, J. Brabec, A. Bruner, E. Cauet, Y. Chen, G. N. Chuev,
      C. J. Cramer, J. Daily, M. J. O. Deegan, T. H. Dunning Jr., M. Dupuis,
   K. G. Dyall, G. I. Fann, S. A. Fischer, A. Fonari, H. Fruchtl, L. Gagliardi,
      J. Garza, N. Gawande, S. Ghosh, K. Glaesemann, A. W. Gotz, J. Hammond,
       V. Helms, E. D. Hermes, K. Hirao, S. Hirata, M. Jacquelin, L. Jensen,
   B. G. Johnson, H. Jonsson, R. A. Kendall, M. Klemm, R. Kobayashi, V. Konkov,
      S. Krishnamoorthy, M. Krishnan, Z. Lin, R. D. Lins, R. J. Littlefield,
      A. J. Logsdail, K. Lopata, W. Ma, A. V. Marenich, J. Martin del Campo,
   D. Mejia-Rodriguez, J. E. Moore, J. M. Mullin, T. Nakajima, D. R. Nascimento,
    J. A. Nichols, P. J. Nichols, J. Nieplocha, A. Otero-de-la-Roza, B. Palmer,
    A. Panyala, T. Pirojsirikul, B. Peng, R. Peverati, J. Pittner, L. Pollack,
   R. M. Richard, P. Sadayappan, G. C. Schatz, W. A. Shelton, D. W. Silverstein,
   D. M. A. Smith, T. A. Soares, D. Song, M. Swart, H. L. Taylor, G. S. Thomas,
            V. Tipparaju, D. G. Truhlar, K. Tsemekhman, T. Van Voorhis,
      A. Vazquez-Mayagoitia, P. Verma, O. Villa, A. Vishnu, K. D. Vogiatzis,
        D. Wang, J. H. Weare, M. J. Williamson, T. L. Windus, K. Wolinski,
        A. T. Wong, Q. Wu, C. Yang, Q. Yu, M. Zacharias, Z. Zhang, Y. Zhao,
                                and R. J. Harrison
                        "NWChem: Past, present, and future
                         J. Chem. Phys. 152, 184102 (2020)
                               doi:10.1063/5.0004997

                                      AUTHORS
                                      -------
  E. Apra, E. J. Bylaska, N. Govind, K. Kowalski, M. Valiev, D. Mejia-Rodriguez,
       A. Kunitsa, N. P. Bauman, A. Panyala, W. A. de Jong, T. P. Straatsma,
   H. J. J. van Dam, D. Wang, T. L. Windus, J. Hammond, J. Autschbach, A. Woods,
    K. Bhaskaran-Nair, J. Brabec, K. Lopata, S. A. Fischer, S. Krishnamoorthy,
     M. Jacquelin, W. Ma, M. Klemm, O. Villa, Y. Chen, V. Anisimov, F. Aquino,
     S. Hirata, M. T. Hackler, E. Hermes, L. Jensen, J. E. Moore, J. C. Becca,
      V. Konjkov, T. Risthaus, M. Malagoli, A. Marenich, A. Otero-de-la-Roza,
        J. Mullin, P. Nichols, R. Peverati, J. Pittner, Y. Zhao, P.-D. Fan,
        A. Fonari, M. J. Williamson, R. J. Harrison, J. R. Rehr, M. Dupuis,
     D. Silverstein, D. M. A. Smith, J. Nieplocha, V. Tipparaju, M. Krishnan,
     B. E. Van Kuiken, A. Vazquez-Mayagoitia, M. Swart, Q. Wu, T. Van Voorhis,
     A. A. Auer, M. Nooijen, L. D. Crosby, E. Brown, G. Cisneros, G. I. Fann,
   H. Fruchtl, J. Garza, K. Hirao, R. A. Kendall, J. A. Nichols, K. Tsemekhman,
    K. Wolinski, J. Anchell, D. E. Bernholdt, P. Borowski, T. Clark, D. Clerc,
   H. Dachsel, M. J. O. Deegan, K. Dyall, D. Elwood, E. Glendening, M. Gutowski,
   A. C. Hess, J. Jaffe, B. G. Johnson, J. Ju, R. Kobayashi, R. Kutteh, Z. Lin,
   R. Littlefield, X. Long, B. Meng, T. Nakajima, S. Niu, L. Pollack, M. Rosing,
   K. Glaesemann, G. Sandrone, M. Stave, H. Taylor, G. Thomas, J. H. van Lenthe,
                               A. T. Wong, Z. Zhang.

 Total times  cpu:     6188.7s     wall:     6219.3s
