export TMOUT=5400
export TMPDIR=/tmp
export PTMPDIR=/tmp/ptmp
 argument  1 = inputs/ASN_ASN_5.nw



============================== echo of input deck ==============================
start ASN_ASN_5
geometry
H         -0.82600        5.93200       -5.56200
C          0.07600        6.53800       -5.63100
H         -0.16900        7.58400       -5.45500
H          0.52200        6.43000       -6.61900
C          1.07000        6.08500       -4.59000
O          1.54800        6.88500       -3.79700
N          1.40000        4.79400       -4.59500
H          0.91600        4.18400       -5.24100
C          2.31000        4.16900       -3.62100
H          1.94000        4.40100       -2.62100
C          2.27600        2.64000       -3.81300
H          2.70400        2.38800       -4.78300
H          2.89000        2.17000       -3.04500
C          0.87400        2.06300       -3.76000
O          0.09600        2.19400       -4.68800
N          0.49800        1.41700       -2.68200
H         -0.43900        1.05400       -2.69100
H          1.12200        1.30400       -1.90600
C          3.76300        4.69000       -3.68100
O          4.55600        4.39800       -2.79000
N          4.11500        5.46000       -4.71200
H          3.38600        5.67800       -5.38000
C          5.41300        6.10600       -4.93300
H          6.19600        5.37600       -4.72000
C          5.49100        6.47800       -6.42700
H          6.43200        6.98300       -6.64100
H          5.45500        5.56800       -7.02600
C          4.33200        7.36500       -6.84800
O          3.30200        6.89200       -7.29700
N          4.43500        8.65500       -6.64800
H          3.63500        9.21700       -6.87100
H          5.22500        9.00200       -6.11800
C          5.68500        7.31600       -3.99900
O          6.25400        8.32200       -4.41800
N          5.25800        7.27300       -2.74500
H          5.40800        8.07300       -2.15400
H          4.81100        6.43500       -2.40200
end

basis
 * library aug-cc-pvdz
end

echo

scf
 direct
end

task scf energy
================================================================================


                                         
                                         


             Northwest Computational Chemistry Package (NWChem) 7.2.0
             --------------------------------------------------------


                    Environmental Molecular Sciences Laboratory
                       Pacific Northwest National Laboratory
                                Richland, WA 99352

                              Copyright (c) 1994-2022
                       Pacific Northwest National Laboratory
                            Battelle Memorial Institute

             NWChem is an open-source computational chemistry package
                        distributed under the terms of the
                      Educational Community License (ECL) 2.0
             A copy of the license is included with this distribution
                              in the LICENSE.TXT file

                                  ACKNOWLEDGMENT
                                  --------------

            This software and its documentation were developed at the
            EMSL at Pacific Northwest National Laboratory, a multiprogram
            national laboratory, operated for the U.S. Department of Energy
            by Battelle under Contract Number DE-AC05-76RL01830. Support
            for this work was provided by the Department of Energy Office
            of Biological and Environmental Research, Office of Basic
            Energy Sciences, and the Office of Advanced Scientific Computing.


           Job information
           ---------------

    hostname        = nova21-speedy-12
    program         = /opt/rit/el9/20230413/app/linux-rhel9-x86_64_v3/gcc-11.2.1/nwchem-7.2.0-oxtctbuhfuzyfaoziquq6bki22grib3g/bin/nwchem
    date            = Thu Jul 10 03:59:43 2025

    compiled        = Wed_May_17_23:46:39_2023
    source          = /tmp/root/spack-stage/spack-stage-nwchem-7.2.0-oxtctbuhfuzyfaoziquq6bki22grib3g/spack-src
    nwchem branch   = 7.2.0
    nwchem revision = d0d141fd
    ga revision     = 5.8.0
    use scalapack   = T
    input           = inputs/ASN_ASN_5.nw
    prefix          = ASN_ASN_5.
    data base       = ./ASN_ASN_5.db
    status          = startup
    nproc           =        8
    time left       =     -1s



           Memory information
           ------------------

    heap     =   26214394 doubles =    200.0 Mbytes
    stack    =   26214399 doubles =    200.0 Mbytes
    global   =   52428800 doubles =    400.0 Mbytes (distinct from heap & stack)
    total    =  104857593 doubles =    800.0 Mbytes
    verify   = yes
    hardfail = no 


           Directory information
           ---------------------

  0 permanent = .
  0 scratch   = .




                                NWChem Input Module
                                -------------------



 Scaling coordinates for geometry "geometry" by  1.889725989
 (inverse scale =  0.529177249)

 C1  symmetry detected

          ------
          auto-z
          ------
  no constraints, skipping    0.0000000000000000     
  no constraints, skipping    0.0000000000000000     


                             Geometry "geometry" -> ""
                             -------------------------

 Output coordinates in angstroms (scale by  1.889725989 to convert to a.u.)

  No.       Tag          Charge          X              Y              Z
 ---- ---------------- ---------- -------------- -------------- --------------
    1 H                    1.0000    -3.37987591    -1.96303120     1.17284965
    2 C                    6.0000    -3.05018926    -0.92706211     1.11222155
    3 H                    1.0000    -3.45851095    -0.36138193     1.94792264
    4 H                    1.0000    -3.38513602    -0.48436947     0.17490736
    5 C                    6.0000    -1.54343081    -0.87194111     1.17194303
    6 O                    8.0000    -0.97924944    -0.17158813     2.00172497
    7 N                    7.0000    -0.87886729    -1.60327200     0.27800989
    8 H                    1.0000    -1.41481215    -2.20379846    -0.33501790
    9 C                    6.0000     0.58837306    -1.71150514     0.22422918
   10 H                    1.0000     0.93749437    -2.01786931     1.21163958
   11 C                    6.0000     0.97324959    -2.80467881    -0.79199047
   12 H                    1.0000     0.68913782    -2.48303764    -1.79369675
   13 H                    1.0000     2.05462052    -2.93953154    -0.77888922
   14 C                    6.0000     0.29642370    -4.13523684    -0.52205709
   15 O                    8.0000    -0.88059509    -4.31465709    -0.77908658
   16 N                    7.0000     1.00185676    -5.10575827     0.00825258
   17 H                    1.0000     0.51173500    -5.96784101     0.17077333
   18 H                    1.0000     1.96996518    -4.97523570     0.23197328
   19 C                    6.0000     1.31340380    -0.38759603    -0.10416858
   20 O                    8.0000     2.53179586    -0.30738965     0.02652856
   21 N                    7.0000     0.58041606     0.64695239    -0.51914272
   22 H                    1.0000    -0.42045009     0.50019093    -0.56292669
   23 C                    6.0000     1.05232372     2.00167556    -0.82408419
   24 H                    1.0000     1.96222786     1.91770795    -1.42106149
   25 C                    6.0000    -0.03097037     2.68105618    -1.68514162
   26 H                    1.0000     0.26215136     3.70285623    -1.92243111
   27 H                    1.0000    -0.13786450     2.13640881    -2.62329400
   28 C                    6.0000    -1.38098438     2.68920657    -0.98894715
   29 O                    8.0000    -2.18883811     1.79262220    -1.16139660
   30 N                    7.0000    -1.63167550     3.64990865    -0.13518228
   31 H                    1.0000    -2.50049012     3.60262778     0.36331413
   32 H                    1.0000    -0.88181271     4.28160595     0.11794483
   33 C                    6.0000     1.43309096     2.83622398     0.42850722
   34 O                    8.0000     1.17012402     4.03544325     0.49237852
   35 N                    7.0000     2.01208946     2.23164483     1.45609604
   36 H                    1.0000     2.22655264     2.77069027     2.27781165
   37 H                    1.0000     2.24469329     1.25138096     1.38768407

      Atomic Mass 
      ----------- 

      H                  1.007825
      C                 12.000000
      O                 15.994910
      N                 14.003070


 Effective nuclear repulsion energy (a.u.)    1703.4972447097

            Nuclear Dipole moment (a.u.) 
            ----------------------------
        X                 Y               Z
 ---------------- ---------------- ----------------
    -0.0000000000    -0.0000000000     0.0000000000



                                Z-matrix (autoz)
                                -------- 

 Units are Angstrom for bonds and degrees for angles

      Type          Name      I     J     K     L     M      Value
      ----------- --------  ----- ----- ----- ----- ----- ----------
    1 Stretch                  1     2                       1.08885
    2 Stretch                  2     3                       1.08863
    3 Stretch                  2     4                       1.08937
    4 Stretch                  2     5                       1.50895
    5 Stretch                  5     6                       1.22366
    6 Stretch                  5     7                       1.33252
    7 Stretch                  7     8                       1.01177
    8 Stretch                  7     9                       1.47221
    9 Stretch                  9    10                       1.09120
   10 Stretch                  9    11                       1.54138
   11 Stretch                  9    19                       1.54475
   12 Stretch                 11    12                       1.08977
   13 Stretch                 11    13                       1.08983
   14 Stretch                 11    14                       1.51702
   15 Stretch                 14    15                       1.21804
   16 Stretch                 14    16                       1.31178
   17 Stretch                 16    17                       1.00490
   18 Stretch                 16    18                       1.00216
   19 Stretch                 19    20                       1.22800
   20 Stretch                 19    21                       1.33408
   21 Stretch                 21    22                       1.01252
   22 Stretch                 21    23                       1.46662
   23 Stretch                 23    24                       1.09149
   24 Stretch                 23    25                       1.54159
   25 Stretch                 23    33                       1.55256
   26 Stretch                 25    26                       1.08917
   27 Stretch                 25    27                       1.09004
   28 Stretch                 25    28                       1.51898
   29 Stretch                 28    29                       1.21911
   30 Stretch                 28    30                       1.30947
   31 Stretch                 30    31                       1.00278
   32 Stretch                 30    32                       1.01262
   33 Stretch                 33    34                       1.22937
   34 Stretch                 33    35                       1.32540
   35 Stretch                 35    36                       1.00587
   36 Stretch                 35    37                       1.00980
   37 Bend                     1     2     3               109.75973
   38 Bend                     1     2     4               109.96528
   39 Bend                     1     2     5               109.56618
   40 Bend                     2     5     6               120.53995
   41 Bend                     2     5     7               116.83377
   42 Bend                     3     2     4               109.51321
   43 Bend                     3     2     5               108.97584
   44 Bend                     4     2     5               109.04021
   45 Bend                     5     7     8               117.90759
   46 Bend                     5     7     9               124.18728
   47 Bend                     6     5     7               122.62234
   48 Bend                     7     9    10               107.84521
   49 Bend                     7     9    11               108.97023
   50 Bend                     7     9    19               114.36363
   51 Bend                     8     7     9               117.52621
   52 Bend                     9    11    12               109.36565
   53 Bend                     9    11    13               109.12255
   54 Bend                     9    11    14               113.16185
   55 Bend                     9    19    20               119.93577
   56 Bend                     9    19    21               118.22037
   57 Bend                    10     9    11               108.51630
   58 Bend                    10     9    19               106.42882
   59 Bend                    11     9    19               110.51618
   60 Bend                    11    14    15               121.51877
   61 Bend                    11    14    16               118.74544
   62 Bend                    12    11    13               107.83384
   63 Bend                    12    11    14               107.82507
   64 Bend                    13    11    14               109.39181
   65 Bend                    14    16    17               115.96343
   66 Bend                    14    16    18               120.88950
   67 Bend                    15    14    16               119.73442
   68 Bend                    17    16    18               123.14702
   69 Bend                    19    21    22               116.36958
   70 Bend                    19    21    23               127.17135
   71 Bend                    20    19    21               121.84271
   72 Bend                    21    23    24               108.11317
   73 Bend                    21    23    25               107.28377
   74 Bend                    21    23    33               114.05950
   75 Bend                    22    21    23               116.29302
   76 Bend                    23    25    26               110.24352
   77 Bend                    23    25    27               109.23428
   78 Bend                    23    25    28               111.77169
   79 Bend                    23    33    34               120.91746
   80 Bend                    23    33    35               119.17322
   81 Bend                    24    23    25               108.31337
   82 Bend                    24    23    33               106.15076
   83 Bend                    25    23    33               112.71110
   84 Bend                    25    28    29               121.34354
   85 Bend                    25    28    30               118.22368
   86 Bend                    26    25    27               107.91679
   87 Bend                    26    25    28               109.51210
   88 Bend                    27    25    28               108.05864
   89 Bend                    28    30    31               117.09011
   90 Bend                    28    30    32               118.61251
   91 Bend                    29    28    30               120.32655
   92 Bend                    31    30    32               123.14317
   93 Bend                    33    35    36               118.81942
   94 Bend                    33    35    37               119.40006
   95 Bend                    34    33    35               119.87581
   96 Bend                    36    35    37               121.76617
   97 Torsion                  1     2     5     6        -125.93071
   98 Torsion                  1     2     5     7          54.77250
   99 Torsion                  2     5     7     8          -4.71030
  100 Torsion                  2     5     7     9        -177.45402
  101 Torsion                  3     2     5     6          -5.82301
  102 Torsion                  3     2     5     7         174.88019
  103 Torsion                  4     2     5     6         113.67096
  104 Torsion                  4     2     5     7         -65.62584
  105 Torsion                  5     7     9    10          53.75117
  106 Torsion                  5     7     9    11         171.36118
  107 Torsion                  5     7     9    19         -64.41014
  108 Torsion                  6     5     7     8         176.00879
  109 Torsion                  6     5     7     9           3.26508
  110 Torsion                  7     9    11    12          66.50097
  111 Torsion                  7     9    11    13        -175.75971
  112 Torsion                  7     9    11    14         -53.71655
  113 Torsion                  7     9    19    20         168.76027
  114 Torsion                  7     9    19    21         -10.85807
  115 Torsion                  8     7     9    10        -119.01801
  116 Torsion                  8     7     9    11          -1.40800
  117 Torsion                  8     7     9    19         122.82068
  118 Torsion                  9    11    14    15          74.96466
  119 Torsion                  9    11    14    16        -104.60807
  120 Torsion                  9    19    21    22           1.91383
  121 Torsion                  9    19    21    23         177.02572
  122 Torsion                 10     9    11    12        -176.31426
  123 Torsion                 10     9    11    13         -58.57494
  124 Torsion                 10     9    11    14          63.46822
  125 Torsion                 10     9    19    20          49.79665
  126 Torsion                 10     9    19    21        -129.82170
  127 Torsion                 11     9    19    20         -67.83944
  128 Torsion                 11     9    19    21         112.54221
  129 Torsion                 11    14    16    17         179.88545
  130 Torsion                 11    14    16    18          -0.03194
  131 Torsion                 12    11     9    19         -59.96835
  132 Torsion                 12    11    14    15         -46.12742
  133 Torsion                 12    11    14    16         134.29985
  134 Torsion                 13    11     9    19          57.77097
  135 Torsion                 13    11    14    15        -163.14291
  136 Torsion                 13    11    14    16          17.28436
  137 Torsion                 14    11     9    19         179.81413
  138 Torsion                 15    14    16    17           0.30491
  139 Torsion                 15    14    16    18        -179.61247
  140 Torsion                 19    21    23    24          45.01350
  141 Torsion                 19    21    23    25         161.62966
  142 Torsion                 19    21    23    33         -72.79762
  143 Torsion                 20    19    21    22        -177.69683
  144 Torsion                 20    19    21    23          -2.58494
  145 Torsion                 21    23    25    26         178.77331
  146 Torsion                 21    23    25    27         -62.80559
  147 Torsion                 21    23    25    28          56.72501
  148 Torsion                 21    23    33    34        -141.36808
  149 Torsion                 21    23    33    35          36.52372
  150 Torsion                 22    21    23    24        -139.87137
  151 Torsion                 22    21    23    25         -23.25521
  152 Torsion                 22    21    23    33         102.31751
  153 Torsion                 23    25    28    29         -91.99585
  154 Torsion                 23    25    28    30          84.26787
  155 Torsion                 23    33    35    36        -177.83350
  156 Torsion                 23    33    35    37           3.51980
  157 Torsion                 24    23    25    26         -64.74236
  158 Torsion                 24    23    25    27          53.67874
  159 Torsion                 24    23    25    28         173.20933
  160 Torsion                 24    23    33    34          99.70062
  161 Torsion                 24    23    33    35         -82.40758
  162 Torsion                 25    23    33    34         -18.71259
  163 Torsion                 25    23    33    35         159.17921
  164 Torsion                 25    28    30    31        -175.72230
  165 Torsion                 25    28    30    32          -7.60756
  166 Torsion                 26    25    23    33          52.39725
  167 Torsion                 26    25    28    29         145.53684
  168 Torsion                 26    25    28    30         -38.19944
  169 Torsion                 27    25    23    33         170.81836
  170 Torsion                 27    25    28    29          28.22533
  171 Torsion                 27    25    28    30        -155.51095
  172 Torsion                 28    25    23    33         -69.65105
  173 Torsion                 29    28    30    31           0.58085
  174 Torsion                 29    28    30    32         168.69560
  175 Torsion                 34    33    35    36           0.08067
  176 Torsion                 34    33    35    37        -178.56602


            XYZ format geometry
            -------------------
    37
 geometry
 H                    -3.37987591    -1.96303120     1.17284965
 C                    -3.05018926    -0.92706211     1.11222155
 H                    -3.45851095    -0.36138193     1.94792264
 H                    -3.38513602    -0.48436947     0.17490736
 C                    -1.54343081    -0.87194111     1.17194303
 O                    -0.97924944    -0.17158813     2.00172497
 N                    -0.87886729    -1.60327200     0.27800989
 H                    -1.41481215    -2.20379846    -0.33501790
 C                     0.58837306    -1.71150514     0.22422918
 H                     0.93749437    -2.01786931     1.21163958
 C                     0.97324959    -2.80467881    -0.79199047
 H                     0.68913782    -2.48303764    -1.79369675
 H                     2.05462052    -2.93953154    -0.77888922
 C                     0.29642370    -4.13523684    -0.52205709
 O                    -0.88059509    -4.31465709    -0.77908658
 N                     1.00185676    -5.10575827     0.00825258
 H                     0.51173500    -5.96784101     0.17077333
 H                     1.96996518    -4.97523570     0.23197328
 C                     1.31340380    -0.38759603    -0.10416858
 O                     2.53179586    -0.30738965     0.02652856
 N                     0.58041606     0.64695239    -0.51914272
 H                    -0.42045009     0.50019093    -0.56292669
 C                     1.05232372     2.00167556    -0.82408419
 H                     1.96222786     1.91770795    -1.42106149
 C                    -0.03097037     2.68105618    -1.68514162
 H                     0.26215136     3.70285623    -1.92243111
 H                    -0.13786450     2.13640881    -2.62329400
 C                    -1.38098438     2.68920657    -0.98894715
 O                    -2.18883811     1.79262220    -1.16139660
 N                    -1.63167550     3.64990865    -0.13518228
 H                    -2.50049012     3.60262778     0.36331413
 H                    -0.88181271     4.28160595     0.11794483
 C                     1.43309096     2.83622398     0.42850722
 O                     1.17012402     4.03544325     0.49237852
 N                     2.01208946     2.23164483     1.45609604
 H                     2.22655264     2.77069027     2.27781165
 H                     2.24469329     1.25138096     1.38768407

 ==============================================================================
                                internuclear distances
 ------------------------------------------------------------------------------
       center one      |      center two      | atomic units |  angstroms
 ------------------------------------------------------------------------------
    2 C                |   1 H                |     2.05763  |     1.08885
    3 H                |   2 C                |     2.05721  |     1.08863
    4 H                |   2 C                |     2.05861  |     1.08937
    5 C                |   2 C                |     2.85150  |     1.50895
    6 O                |   5 C                |     2.31237  |     1.22366
    7 N                |   5 C                |     2.51810  |     1.33252
    8 H                |   7 N                |     1.91196  |     1.01177
    9 C                |   7 N                |     2.78207  |     1.47221
   10 H                |   9 C                |     2.06207  |     1.09120
   11 C                |   9 C                |     2.91279  |     1.54138
   12 H                |  11 C                |     2.05936  |     1.08977
   13 H                |  11 C                |     2.05947  |     1.08983
   14 C                |  11 C                |     2.86675  |     1.51702
   15 O                |  14 C                |     2.30177  |     1.21804
   16 N                |  14 C                |     2.47891  |     1.31178
   17 H                |  16 N                |     1.89898  |     1.00490
   18 H                |  16 N                |     1.89380  |     1.00216
   19 C                |   9 C                |     2.91915  |     1.54475
   20 O                |  19 C                |     2.32059  |     1.22800
   21 N                |  19 C                |     2.52104  |     1.33408
   22 H                |  21 N                |     1.91338  |     1.01252
   23 C                |  21 N                |     2.77150  |     1.46662
   24 H                |  23 C                |     2.06262  |     1.09149
   25 C                |  23 C                |     2.91319  |     1.54159
   26 H                |  25 C                |     2.05824  |     1.08917
   27 H                |  25 C                |     2.05989  |     1.09004
   28 C                |  25 C                |     2.87045  |     1.51898
   29 O                |  28 C                |     2.30378  |     1.21911
   30 N                |  28 C                |     2.47454  |     1.30947
   31 H                |  30 N                |     1.89498  |     1.00278
   32 H                |  30 N                |     1.91358  |     1.01262
   33 C                |  23 C                |     2.93391  |     1.55256
   34 O                |  33 C                |     2.32318  |     1.22937
   35 N                |  33 C                |     2.50465  |     1.32540
   36 H                |  35 N                |     1.90082  |     1.00587
   37 H                |  35 N                |     1.90825  |     1.00980
 ------------------------------------------------------------------------------
                         number of included internuclear distances:         36
 ==============================================================================



 ==============================================================================
                                 internuclear angles
 ------------------------------------------------------------------------------
        center 1       |       center 2       |       center 3       |  degrees
 ------------------------------------------------------------------------------
    1 H                |   2 C                |   3 H                |   109.76
    1 H                |   2 C                |   4 H                |   109.97
    1 H                |   2 C                |   5 C                |   109.57
    3 H                |   2 C                |   4 H                |   109.51
    3 H                |   2 C                |   5 C                |   108.98
    4 H                |   2 C                |   5 C                |   109.04
    2 C                |   5 C                |   6 O                |   120.54
    2 C                |   5 C                |   7 N                |   116.83
    6 O                |   5 C                |   7 N                |   122.62
    5 C                |   7 N                |   8 H                |   117.91
    5 C                |   7 N                |   9 C                |   124.19
    8 H                |   7 N                |   9 C                |   117.53
    7 N                |   9 C                |  10 H                |   107.85
    7 N                |   9 C                |  11 C                |   108.97
    7 N                |   9 C                |  19 C                |   114.36
   10 H                |   9 C                |  11 C                |   108.52
   10 H                |   9 C                |  19 C                |   106.43
   11 C                |   9 C                |  19 C                |   110.52
    9 C                |  11 C                |  12 H                |   109.37
    9 C                |  11 C                |  13 H                |   109.12
    9 C                |  11 C                |  14 C                |   113.16
   12 H                |  11 C                |  13 H                |   107.83
   12 H                |  11 C                |  14 C                |   107.83
   13 H                |  11 C                |  14 C                |   109.39
   11 C                |  14 C                |  15 O                |   121.52
   11 C                |  14 C                |  16 N                |   118.75
   15 O                |  14 C                |  16 N                |   119.73
   14 C                |  16 N                |  17 H                |   115.96
   14 C                |  16 N                |  18 H                |   120.89
   17 H                |  16 N                |  18 H                |   123.15
    9 C                |  19 C                |  20 O                |   119.94
    9 C                |  19 C                |  21 N                |   118.22
   20 O                |  19 C                |  21 N                |   121.84
   19 C                |  21 N                |  22 H                |   116.37
   19 C                |  21 N                |  23 C                |   127.17
   22 H                |  21 N                |  23 C                |   116.29
   21 N                |  23 C                |  24 H                |   108.11
   21 N                |  23 C                |  25 C                |   107.28
   21 N                |  23 C                |  33 C                |   114.06
   24 H                |  23 C                |  25 C                |   108.31
   24 H                |  23 C                |  33 C                |   106.15
   25 C                |  23 C                |  33 C                |   112.71
   23 C                |  25 C                |  26 H                |   110.24
   23 C                |  25 C                |  27 H                |   109.23
   23 C                |  25 C                |  28 C                |   111.77
   26 H                |  25 C                |  27 H                |   107.92
   26 H                |  25 C                |  28 C                |   109.51
   27 H                |  25 C                |  28 C                |   108.06
   25 C                |  28 C                |  29 O                |   121.34
   25 C                |  28 C                |  30 N                |   118.22
   29 O                |  28 C                |  30 N                |   120.33
   28 C                |  30 N                |  31 H                |   117.09
   28 C                |  30 N                |  32 H                |   118.61
   31 H                |  30 N                |  32 H                |   123.14
   23 C                |  33 C                |  34 O                |   120.92
   23 C                |  33 C                |  35 N                |   119.17
   34 O                |  33 C                |  35 N                |   119.88
   33 C                |  35 N                |  36 H                |   118.82
   33 C                |  35 N                |  37 H                |   119.40
   36 H                |  35 N                |  37 H                |   121.77
 ------------------------------------------------------------------------------
                            number of included internuclear angles:         60
 ==============================================================================



  library name resolved from: environment
  library file name is: </opt/rit/el9/20230413/app/linux-rhel9-x86_64_v3/gcc-11.2.1/nwchem-7.2.0-oxtctbuhfuzyfaoziquq6bki22grib3g/share/nwchem/libraries/>
  


 Summary of "ao basis" -> "" (cartesian)
 ------------------------------------------------------------------------------
       Tag                 Description            Shells   Functions and Types
 ---------------- ------------------------------  ------  ---------------------
 *                        aug-cc-pvdz                 on all atoms 


                      Basis "ao basis" -> "ao basis" (cartesian)
                      -----
  H (Hydrogen)
  ------------
            Exponent  Coefficients 
       -------------- ---------------------------------------------------------
  1 S  1.30100000E+01  0.019685
  1 S  1.96200000E+00  0.137977
  1 S  4.44600000E-01  0.478148

  2 S  1.22000000E-01  1.000000

  3 S  2.97400000E-02  1.000000

  4 P  7.27000000E-01  1.000000

  5 P  1.41000000E-01  1.000000

  C (Carbon)
  ----------
            Exponent  Coefficients 
       -------------- ---------------------------------------------------------
  1 S  6.66500000E+03  0.000692
  1 S  1.00000000E+03  0.005329
  1 S  2.28000000E+02  0.027077
  1 S  6.47100000E+01  0.101718
  1 S  2.10600000E+01  0.274740
  1 S  7.49500000E+00  0.448564
  1 S  2.79700000E+00  0.285074
  1 S  5.21500000E-01  0.015204

  2 S  6.66500000E+03 -0.000146
  2 S  1.00000000E+03 -0.001154
  2 S  2.28000000E+02 -0.005725
  2 S  6.47100000E+01 -0.023312
  2 S  2.10600000E+01 -0.063955
  2 S  7.49500000E+00 -0.149981
  2 S  2.79700000E+00 -0.127262
  2 S  5.21500000E-01  0.544529

  3 S  1.59600000E-01  1.000000

  4 S  4.69000000E-02  1.000000

  5 P  9.43900000E+00  0.038109
  5 P  2.00200000E+00  0.209480
  5 P  5.45600000E-01  0.508557

  6 P  1.51700000E-01  1.000000

  7 P  4.04100000E-02  1.000000

  8 D  5.50000000E-01  1.000000

  9 D  1.51000000E-01  1.000000

  O (Oxygen)
  ----------
            Exponent  Coefficients 
       -------------- ---------------------------------------------------------
  1 S  1.17200000E+04  0.000710
  1 S  1.75900000E+03  0.005470
  1 S  4.00800000E+02  0.027837
  1 S  1.13700000E+02  0.104800
  1 S  3.70300000E+01  0.283062
  1 S  1.32700000E+01  0.448719
  1 S  5.02500000E+00  0.270952
  1 S  1.01300000E+00  0.015458

  2 S  1.17200000E+04 -0.000160
  2 S  1.75900000E+03 -0.001263
  2 S  4.00800000E+02 -0.006267
  2 S  1.13700000E+02 -0.025716
  2 S  3.70300000E+01 -0.070924
  2 S  1.32700000E+01 -0.165411
  2 S  5.02500000E+00 -0.116955
  2 S  1.01300000E+00  0.557368

  3 S  3.02300000E-01  1.000000

  4 S  7.89600000E-02  1.000000

  5 P  1.77000000E+01  0.043018
  5 P  3.85400000E+00  0.228913
  5 P  1.04600000E+00  0.508728

  6 P  2.75300000E-01  1.000000

  7 P  6.85600000E-02  1.000000

  8 D  1.18500000E+00  1.000000

  9 D  3.32000000E-01  1.000000

  N (Nitrogen)
  ------------
            Exponent  Coefficients 
       -------------- ---------------------------------------------------------
  1 S  9.04600000E+03  0.000700
  1 S  1.35700000E+03  0.005389
  1 S  3.09300000E+02  0.027406
  1 S  8.77300000E+01  0.103207
  1 S  2.85600000E+01  0.278723
  1 S  1.02100000E+01  0.448540
  1 S  3.83800000E+00  0.278238
  1 S  7.46600000E-01  0.015440

  2 S  9.04600000E+03 -0.000153
  2 S  1.35700000E+03 -0.001208
  2 S  3.09300000E+02 -0.005992
  2 S  8.77300000E+01 -0.024544
  2 S  2.85600000E+01 -0.067459
  2 S  1.02100000E+01 -0.158078
  2 S  3.83800000E+00 -0.121831
  2 S  7.46600000E-01  0.549003

  3 S  2.24800000E-01  1.000000

  4 S  6.12400000E-02  1.000000

  5 P  1.35500000E+01  0.039919
  5 P  2.91700000E+00  0.217169
  5 P  7.97300000E-01  0.510319

  6 P  2.18500000E-01  1.000000

  7 P  5.61100000E-02  1.000000

  8 D  8.17000000E-01  1.000000

  9 D  2.30000000E-01  1.000000



 Summary of "ao basis" -> "ao basis" (cartesian)
 ------------------------------------------------------------------------------
       Tag                 Description            Shells   Functions and Types
 ---------------- ------------------------------  ------  ---------------------
 H                        aug-cc-pvdz                5        9   3s2p
 C                        aug-cc-pvdz                9       25   4s3p2d
 O                        aug-cc-pvdz                9       25   4s3p2d
 N                        aug-cc-pvdz                9       25   4s3p2d


                                 NWChem SCF Module
                                 -----------------



  ao basis        = "ao basis"
  functions       =   653
  atoms           =    37
  closed shells   =    76
  open shells     =     0
  charge          =   0.00
  wavefunction    = RHF 
  input vectors   = atomic
  output vectors  = ./ASN_ASN_5.movecs
  use symmetry    = F
  symmetry adapt  = F


 Summary of "ao basis" -> "ao basis" (cartesian)
 ------------------------------------------------------------------------------
       Tag                 Description            Shells   Functions and Types
 ---------------- ------------------------------  ------  ---------------------
 H                        aug-cc-pvdz                5        9   3s2p
 C                        aug-cc-pvdz                9       25   4s3p2d
 O                        aug-cc-pvdz                9       25   4s3p2d
 N                        aug-cc-pvdz                9       25   4s3p2d



 Forming initial guess at       0.8s


 !! The overlap matrix has   5 vectors deemed linearly dependent with
    eigenvalues:
 2.22D-06 3.97D-06 6.65D-06 7.62D-06 9.59D-06


      Superposition of Atomic Density Guess
      -------------------------------------

 Sum of atomic energies:       -1030.50653915

      Non-variational initial energy
      ------------------------------

 Total energy =   -1043.175689
 1-e energy   =   -4790.806915
 2-e energy   =    2044.133981
 HOMO         =      -0.309433
 LUMO         =       0.005991


 Starting SCF solution at     289.6s



 ----------------------------------------------
         Quadratically convergent ROHF

 Convergence threshold     :          1.000E-04
 Maximum no. of iterations :           30
 Final Fock-matrix accuracy:          1.000E-10
 ----------------------------------------------


              iter       energy          gnorm     gmax       time
             ----- ------------------- --------- --------- --------
                 1    -1034.8925943841  2.93D+00  1.45D-01    584.4
                 2    -1035.3359718206  9.18D-01  3.95D-02   1191.0
                 3    -1035.4100975462  7.58D-02  4.57D-03   2066.9
                 4    -1035.4109732677  4.79D-03  3.07D-04   3224.7
                 5    -1035.4109773627  1.00D-05  5.05D-07   5247.3


       Final RHF  results 
       ------------------ 

         Total SCF energy =  -1035.410977362729
      One-electron energy =  -4804.273867527019
      Two-electron energy =   2065.365645454637
 Nuclear repulsion energy =   1703.497244709654

        Time for solution =   4959.6s


             Final eigenvalues
             -----------------

              1      
    1  -20.5464
    2  -20.5429
    3  -20.5330
    4  -20.5257
    5  -20.5252
    6  -15.6187
    7  -15.6095
    8  -15.6018
    9  -15.5900
   10  -15.5851
   11  -11.3780
   12  -11.3771
   13  -11.3680
   14  -11.3556
   15  -11.3540
   16  -11.3226
   17  -11.3192
   18  -11.2799
   19  -11.2624
   20  -11.2331
   21   -1.4158
   22   -1.4102
   23   -1.3971
   24   -1.3924
   25   -1.3876
   26   -1.2657
   27   -1.2511
   28   -1.2471
   29   -1.2243
   30   -1.2166
   31   -1.0926
   32   -1.0694
   33   -1.0002
   34   -0.9560
   35   -0.9257
   36   -0.8377
   37   -0.8244
   38   -0.8126
   39   -0.8057
   40   -0.7858
   41   -0.7656
   42   -0.7531
   43   -0.7338
   44   -0.7257
   45   -0.7095
   46   -0.6875
   47   -0.6806
   48   -0.6775
   49   -0.6703
   50   -0.6493
   51   -0.6199
   52   -0.6193
   53   -0.6166
   54   -0.6125
   55   -0.6049
   56   -0.5957
   57   -0.5875
   58   -0.5841
   59   -0.5754
   60   -0.5683
   61   -0.5528
   62   -0.5479
   63   -0.5436
   64   -0.5361
   65   -0.5300
   66   -0.5095
   67   -0.4598
   68   -0.4543
   69   -0.4434
   70   -0.4365
   71   -0.4291
   72   -0.4226
   73   -0.4162
   74   -0.4064
   75   -0.4044
   76   -0.3952
   77    0.0229
   78    0.0349
   79    0.0418
   80    0.0440
   81    0.0503
   82    0.0513
   83    0.0557
   84    0.0603
   85    0.0673
   86    0.0692

                       ROHF Final Molecular Orbital Analysis
                       -------------------------------------

 Vector   21  Occ=2.000000D+00  E=-1.415805D+00
              MO Center= -2.3D-01, -4.1D+00, -5.7D-01, r^2= 2.0D+00
   Bfn.  Coefficient  Atom+Function         Bfn.  Coefficient  Atom+Function  
  ----- ------------  ---------------      ----- ------------  ---------------
   241      0.354550  15 O  s               240      0.336431  15 O  s         
   215      0.244043  14 C  s         

 Vector   22  Occ=2.000000D+00  E=-1.410173D+00
              MO Center=  1.6D+00, -1.5D-01, -4.0D-02, r^2= 3.7D+00
   Bfn.  Coefficient  Atom+Function         Bfn.  Coefficient  Atom+Function  
  ----- ------------  ---------------      ----- ------------  ---------------
   334      0.338453  20 O  s               333      0.315259  20 O  s         
   308      0.223788  19 C  s         

 Vector   23  Occ=2.000000D+00  E=-1.397071D+00
              MO Center= -7.4D-01,  2.4D+00, -5.1D-01, r^2= 4.8D+00
   Bfn.  Coefficient  Atom+Function         Bfn.  Coefficient  Atom+Function  
  ----- ------------  ---------------      ----- ------------  ---------------
   495      0.296628  29 O  s               494      0.281899  29 O  s         
   469      0.203447  28 C  s               588      0.199983  34 O  s         
   587      0.182904  34 O  s         

 Vector   24  Occ=2.000000D+00  E=-1.392356D+00
              MO Center=  2.6D-01,  3.0D+00,  7.8D-02, r^2= 4.5D+00
   Bfn.  Coefficient  Atom+Function         Bfn.  Coefficient  Atom+Function  
  ----- ------------  ---------------      ----- ------------  ---------------
   588      0.315968  34 O  s               587      0.290474  34 O  s         
   495     -0.223294  29 O  s               494     -0.201958  29 O  s         
   562      0.198018  33 C  s         

 Vector   25  Occ=2.000000D+00  E=-1.387642D+00
              MO Center= -9.2D-01, -4.8D-01,  1.4D+00, r^2= 2.0D+00
   Bfn.  Coefficient  Atom+Function         Bfn.  Coefficient  Atom+Function  
  ----- ------------  ---------------      ----- ------------  ---------------
    80      0.340618   6 O  s                79      0.335857   6 O  s         
    54      0.238176   5 C  s                12      0.172947   2 C  s         

 Vector   26  Occ=2.000000D+00  E=-1.265727D+00
              MO Center=  4.8D-01,  6.3D-02, -9.6D-02, r^2= 3.5D+00
   Bfn.  Coefficient  Atom+Function         Bfn.  Coefficient  Atom+Function  
  ----- ------------  ---------------      ----- ------------  ---------------
   359      0.280507  21 N  s               358      0.278088  21 N  s         
   334     -0.225098  20 O  s               105      0.220148   7 N  s         
   104      0.171803   7 N  s               333     -0.169074  20 O  s         
   311     -0.156287  19 C  px        

 Vector   27  Occ=2.000000D+00  E=-1.251063D+00
              MO Center=  6.7D-01, -4.8D+00, -1.8D-01, r^2= 1.3D+00
   Bfn.  Coefficient  Atom+Function         Bfn.  Coefficient  Atom+Function  
  ----- ------------  ---------------      ----- ------------  ---------------
   265      0.365900  16 N  s               266      0.360163  16 N  s         
   173     -0.247118  11 C  s               241     -0.233009  15 O  s         
   240     -0.195554  15 O  s               218      0.191281  14 C  px        
   139      0.180123   9 C  s               217      0.172711  14 C  s         
   298      0.169828  18 H  s               289      0.153392  17 H  s         

 Vector   28  Occ=2.000000D+00  E=-1.247076D+00
              MO Center= -2.7D-01, -6.4D-01,  2.8D-01, r^2= 4.0D+00
   Bfn.  Coefficient  Atom+Function         Bfn.  Coefficient  Atom+Function  
  ----- ------------  ---------------      ----- ------------  ---------------
   105      0.361490   7 N  s               104      0.287999   7 N  s         
   359     -0.242296  21 N  s                80     -0.183683   6 O  s         
   358     -0.184588  21 N  s                79     -0.150875   6 O  s         

 Vector   29  Occ=2.000000D+00  E=-1.224336D+00
              MO Center= -1.1D+00,  3.1D+00, -1.9D-01, r^2= 3.0D+00
   Bfn.  Coefficient  Atom+Function         Bfn.  Coefficient  Atom+Function  
  ----- ------------  ---------------      ----- ------------  ---------------
   519      0.338842  30 N  s               520      0.305176  30 N  s         
   495     -0.207565  29 O  s               494     -0.177961  29 O  s         
   473      0.176687  28 C  py              471      0.151562  28 C  s         

 Vector   30  Occ=2.000000D+00  E=-1.216640D+00
              MO Center=  1.3D+00,  2.4D+00,  9.0D-01, r^2= 3.5D+00
   Bfn.  Coefficient  Atom+Function         Bfn.  Coefficient  Atom+Function  
  ----- ------------  ---------------      ----- ------------  ---------------
   613      0.368868  35 N  s               612      0.338142  35 N  s         
   588     -0.196603  34 O  s               359     -0.161387  21 N  s         
   587     -0.158335  34 O  s               645      0.150512  37 H  s         

 Vector   31  Occ=2.000000D+00  E=-1.092600D+00
              MO Center=  3.2D-01, -1.3D+00, -2.3D-01, r^2= 6.0D+00
   Bfn.  Coefficient  Atom+Function         Bfn.  Coefficient  Atom+Function  
  ----- ------------  ---------------      ----- ------------  ---------------
   172      0.225557  11 C  s               138      0.199692   9 C  s         
   173      0.191340  11 C  s         

 Vector   32  Occ=2.000000D+00  E=-1.069361D+00
              MO Center=  4.0D-01,  1.1D+00, -9.1D-01, r^2= 6.8D+00
   Bfn.  Coefficient  Atom+Function         Bfn.  Coefficient  Atom+Function  
  ----- ------------  ---------------      ----- ------------  ---------------
   427      0.263262  25 C  s               426      0.243346  25 C  s         
   392      0.199855  23 C  s               173      0.151781  11 C  s         

 Vector   33  Occ=2.000000D+00  E=-1.000233D+00
              MO Center= -1.9D+00, -1.4D+00,  6.9D-01, r^2= 5.2D+00
   Bfn.  Coefficient  Atom+Function         Bfn.  Coefficient  Atom+Function  
  ----- ------------  ---------------      ----- ------------  ---------------
    11      0.311084   2 C  s               173      0.257497  11 C  s         
    57     -0.163892   5 C  px               55      0.152215   5 C  s         

 Vector   34  Occ=2.000000D+00  E=-9.560346D-01
              MO Center=  4.8D-02,  5.7D-01, -4.7D-01, r^2= 9.1D+00
   Bfn.  Coefficient  Atom+Function         Bfn.  Coefficient  Atom+Function  
  ----- ------------  ---------------      ----- ------------  ---------------
   427      0.345952  25 C  s               173     -0.189373  11 C  s         
   426      0.190003  25 C  s               179      0.164680  11 C  py        
   432     -0.155799  25 C  px        

 Vector   35  Occ=2.000000D+00  E=-9.257438D-01
              MO Center=  3.7D-01, -1.2D-01, -1.7D-01, r^2= 9.8D+00
   Bfn.  Coefficient  Atom+Function         Bfn.  Coefficient  Atom+Function  
  ----- ------------  ---------------      ----- ------------  ---------------
   173      0.223185  11 C  s               138     -0.187645   9 C  s         
   179     -0.182397  11 C  py              392     -0.157743  23 C  s         
   427      0.156912  25 C  s               393     -0.153975  23 C  s         

 Vector   36  Occ=2.000000D+00  E=-8.377342D-01
              MO Center=  6.3D-01, -6.0D-01,  5.0D-02, r^2= 1.1D+01
   Bfn.  Coefficient  Atom+Function         Bfn.  Coefficient  Atom+Function  
  ----- ------------  ---------------      ----- ------------  ---------------
   393      0.292983  23 C  s               309      0.219353  19 C  s         
   570      0.169013  33 C  pz              308      0.155878  19 C  s         

 Vector   37  Occ=2.000000D+00  E=-8.244294D-01
              MO Center=  6.3D-01, -2.3D+00, -9.9D-02, r^2= 1.3D+01
   Bfn.  Coefficient  Atom+Function         Bfn.  Coefficient  Atom+Function  
  ----- ------------  ---------------      ----- ------------  ---------------
   393     -0.198589  23 C  s               269      0.196075  16 N  py        
   268     -0.188424  16 N  px              216      0.186738  14 C  s         
   298     -0.187330  18 H  s               215      0.172719  14 C  s         

 Vector   38  Occ=2.000000D+00  E=-8.125723D-01
              MO Center= -4.5D-01,  4.4D-01,  5.7D-03, r^2= 1.0D+01
   Bfn.  Coefficient  Atom+Function         Bfn.  Coefficient  Atom+Function  
  ----- ------------  ---------------      ----- ------------  ---------------
   217      0.184760  14 C  s               109      0.150636   7 N  pz        

 Vector   39  Occ=2.000000D+00  E=-8.056555D-01
              MO Center= -2.4D-02,  5.3D-02, -7.3D-02, r^2= 6.3D+00
   Bfn.  Coefficient  Atom+Function         Bfn.  Coefficient  Atom+Function  
  ----- ------------  ---------------      ----- ------------  ---------------
   309      0.247112  19 C  s               361      0.216058  21 N  px        
   359     -0.197467  21 N  s               105      0.183085   7 N  s         
   382     -0.183577  22 H  s               128      0.180143   8 H  s         
   315      0.171637  19 C  py              109     -0.169242   7 N  pz        
   108     -0.157286   7 N  py              217     -0.156140  14 C  s         

 Vector   40  Occ=2.000000D+00  E=-7.858029D-01
              MO Center=  1.6D-01,  2.3D+00,  1.1D-01, r^2= 6.4D+00
   Bfn.  Coefficient  Atom+Function         Bfn.  Coefficient  Atom+Function  
  ----- ------------  ---------------      ----- ------------  ---------------
   523      0.176214  30 N  py              524      0.170683  30 N  pz        
   617     -0.164279  35 N  pz              645     -0.150756  37 H  s         

 Vector   41  Occ=2.000000D+00  E=-7.655993D-01
              MO Center=  8.8D-01, -4.3D+00, -9.0D-02, r^2= 4.1D+00
   Bfn.  Coefficient  Atom+Function         Bfn.  Coefficient  Atom+Function  
  ----- ------------  ---------------      ----- ------------  ---------------
   268      0.336636  16 N  px              298      0.297014  18 H  s         
   289     -0.269166  17 H  s               269      0.197696  16 N  py        
   173     -0.188741  11 C  s               290     -0.162111  17 H  s         
   139      0.158376   9 C  s               299      0.156130  18 H  s         

 Vector   42  Occ=2.000000D+00  E=-7.530763D-01
              MO Center=  5.6D-01,  2.4D+00,  3.0D-01, r^2= 6.7D+00
   Bfn.  Coefficient  Atom+Function         Bfn.  Coefficient  Atom+Function  
  ----- ------------  ---------------      ----- ------------  ---------------
   616      0.268096  35 N  py              645     -0.224896  37 H  s         
   552     -0.194698  32 H  s               522     -0.190804  30 N  px        
   563      0.167881  33 C  s         

 Vector   43  Occ=2.000000D+00  E=-7.337831D-01
              MO Center=  2.7D-01,  5.2D-01, -1.7D-02, r^2= 8.4D+00
   Bfn.  Coefficient  Atom+Function         Bfn.  Coefficient  Atom+Function  
  ----- ------------  ---------------      ----- ------------  ---------------
   399      0.233403  23 C  py              361     -0.203104  21 N  px        
   312     -0.156226  19 C  py              382      0.156811  22 H  s         
   396      0.156796  23 C  py              563     -0.155683  33 C  s         
   309     -0.152148  19 C  s         

 Vector   44  Occ=2.000000D+00  E=-7.257114D-01
              MO Center= -1.9D-03,  1.1D+00,  9.4D-02, r^2= 1.1D+01
   Bfn.  Coefficient  Atom+Function         Bfn.  Coefficient  Atom+Function  
  ----- ------------  ---------------      ----- ------------  ---------------
   522      0.238803  30 N  px              543     -0.185334  31 H  s         
   552      0.181481  32 H  s               144      0.170815   9 C  px        
   427     -0.151677  25 C  s         

 Vector   45  Occ=2.000000D+00  E=-7.094842D-01
              MO Center=  2.3D-01,  1.4D-01,  1.8D-01, r^2= 1.1D+01
   Bfn.  Coefficient  Atom+Function         Bfn.  Coefficient  Atom+Function  
  ----- ------------  ---------------      ----- ------------  ---------------
   636      0.174228  36 H  s               399      0.172037  23 C  py        
   107      0.170320   7 N  px              144     -0.163739   9 C  px        
   141     -0.151164   9 C  px        

 Vector   46  Occ=2.000000D+00  E=-6.875263D-01
              MO Center=  2.6D-01, -2.0D+00, -2.9D-01, r^2= 1.1D+01
   Bfn.  Coefficient  Atom+Function         Bfn.  Coefficient  Atom+Function  
  ----- ------------  ---------------      ----- ------------  ---------------
   243      0.190769  15 O  px              219      0.183798  14 C  py        
   241     -0.181798  15 O  s               244      0.166409  15 O  py        

 Vector   47  Occ=2.000000D+00  E=-6.805546D-01
              MO Center= -4.5D-01, -2.2D-01,  1.4D-01, r^2= 9.4D+00
   Bfn.  Coefficient  Atom+Function         Bfn.  Coefficient  Atom+Function  
  ----- ------------  ---------------      ----- ------------  ---------------
    17      0.184207   2 C  px               82     -0.165216   6 O  px        
    14      0.156813   2 C  px        

 Vector   48  Occ=2.000000D+00  E=-6.775272D-01
              MO Center=  3.9D-01,  3.1D-01,  3.6D-01, r^2= 1.1D+01
   Bfn.  Coefficient  Atom+Function         Bfn.  Coefficient  Atom+Function  
  ----- ------------  ---------------      ----- ------------  ---------------
   591      0.174390  34 O  py              617     -0.167139  35 N  pz        
   588      0.160212  34 O  s         

 Vector   49  Occ=2.000000D+00  E=-6.702774D-01
              MO Center= -7.0D-01,  6.0D-01,  7.1D-02, r^2= 9.9D+00
   Bfn.  Coefficient  Atom+Function         Bfn.  Coefficient  Atom+Function  
  ----- ------------  ---------------      ----- ------------  ---------------
   497      0.184825  29 O  px               80     -0.165795   6 O  s         
   473     -0.165841  28 C  py               82     -0.156884   6 O  px        

 Vector   50  Occ=2.000000D+00  E=-6.492963D-01
              MO Center=  6.3D-02,  8.4D-01, -4.0D-01, r^2= 8.5D+00
   Bfn.  Coefficient  Atom+Function         Bfn.  Coefficient  Atom+Function  
  ----- ------------  ---------------      ----- ------------  ---------------
   336      0.206885  20 O  px              497      0.203853  29 O  px        
   395      0.176650  23 C  px              416      0.167291  24 H  s         
   495     -0.159429  29 O  s               311     -0.155679  19 C  px        

 Vector   51  Occ=2.000000D+00  E=-6.199346D-01
              MO Center=  4.7D-01, -1.6D+00, -2.2D-02, r^2= 9.6D+00
   Bfn.  Coefficient  Atom+Function         Bfn.  Coefficient  Atom+Function  
  ----- ------------  ---------------      ----- ------------  ---------------
   220      0.183066  14 C  pz              245      0.168294  15 O  pz        
   270      0.165335  16 N  pz              336     -0.164822  20 O  px        
    55      0.162807   5 C  s         

 Vector   52  Occ=2.000000D+00  E=-6.193163D-01
              MO Center=  2.1D-01, -1.4D+00, -2.6D-01, r^2= 1.1D+01
   Bfn.  Coefficient  Atom+Function         Bfn.  Coefficient  Atom+Function  
  ----- ------------  ---------------      ----- ------------  ---------------
   243      0.239743  15 O  px              218     -0.196729  14 C  px        
   336      0.182117  20 O  px              176      0.170569  11 C  py        
   179      0.163411  11 C  py        

 Vector   53  Occ=2.000000D+00  E=-6.166258D-01
              MO Center= -4.9D-02,  9.1D-01,  3.8D-01, r^2= 1.2D+01
   Bfn.  Coefficient  Atom+Function         Bfn.  Coefficient  Atom+Function  
  ----- ------------  ---------------      ----- ------------  ---------------
   591      0.260673  34 O  py              566     -0.207364  33 C  py        
   139      0.185289   9 C  s               360     -0.183017  21 N  s         
   588      0.160945  34 O  s               318      0.158425  19 C  py        

 Vector   54  Occ=2.000000D+00  E=-6.125500D-01
              MO Center= -7.0D-01,  3.6D-01,  3.9D-01, r^2= 1.1D+01
   Bfn.  Coefficient  Atom+Function         Bfn.  Coefficient  Atom+Function  
  ----- ------------  ---------------      ----- ------------  ---------------
   173      0.256596  11 C  s               591      0.190984  34 O  py        
   139     -0.182148   9 C  s                15     -0.178617   2 C  py        
   566     -0.171301  33 C  py                1      0.164375   1 H  s         

 Vector   55  Occ=2.000000D+00  E=-6.049109D-01
              MO Center= -1.5D-01,  2.0D+00, -5.1D-01, r^2= 6.9D+00
   Bfn.  Coefficient  Atom+Function         Bfn.  Coefficient  Atom+Function  
  ----- ------------  ---------------      ----- ------------  ---------------
   474     -0.182063  28 C  pz              432     -0.179060  25 C  px        
   430      0.175441  25 C  py              499     -0.154096  29 O  pz        

 Vector   56  Occ=2.000000D+00  E=-5.956832D-01
              MO Center=  1.4D-01, -2.4D+00, -3.8D-01, r^2= 8.1D+00
   Bfn.  Coefficient  Atom+Function         Bfn.  Coefficient  Atom+Function  
  ----- ------------  ---------------      ----- ------------  ---------------
   243      0.281585  15 O  px              175      0.250855  11 C  px        
   205      0.234954  13 H  s               217      0.224928  14 C  s         
   206      0.204044  13 H  s               218     -0.197566  14 C  px        
   241     -0.154494  15 O  s         

 Vector   57  Occ=2.000000D+00  E=-5.875353D-01
              MO Center= -1.6D-01,  9.5D-01, -1.7D-01, r^2= 1.1D+01
   Bfn.  Coefficient  Atom+Function         Bfn.  Coefficient  Atom+Function  
  ----- ------------  ---------------      ----- ------------  ---------------
   498     -0.209798  29 O  py              472      0.204761  28 C  px        

 Vector   58  Occ=2.000000D+00  E=-5.840796D-01
              MO Center= -5.9D-01,  4.9D-01, -2.4D-01, r^2= 9.9D+00
   Bfn.  Coefficient  Atom+Function         Bfn.  Coefficient  Atom+Function  
  ----- ------------  ---------------      ----- ------------  ---------------
   498     -0.223836  29 O  py              472      0.204452  28 C  px        
   495      0.152207  29 O  s               173      0.151157  11 C  s         

 Vector   59  Occ=2.000000D+00  E=-5.753702D-01
              MO Center=  8.9D-01, -1.1D+00, -3.2D-01, r^2= 9.2D+00
   Bfn.  Coefficient  Atom+Function         Bfn.  Coefficient  Atom+Function  
  ----- ------------  ---------------      ----- ------------  ---------------
   338      0.215821  20 O  pz              313      0.197082  19 C  pz        
   196      0.173866  12 H  s               393      0.174083  23 C  s         
   363      0.173022  21 N  pz              341      0.171217  20 O  pz        
   245      0.169376  15 O  pz        

 Vector   60  Occ=2.000000D+00  E=-5.682543D-01
              MO Center= -1.3D+00, -9.8D-01,  8.4D-01, r^2= 6.8D+00
   Bfn.  Coefficient  Atom+Function         Bfn.  Coefficient  Atom+Function  
  ----- ------------  ---------------      ----- ------------  ---------------
    36      0.263124   3 H  s                84      0.248373   6 O  pz        
    16      0.204638   2 C  pz               83      0.183847   6 O  py        
    57     -0.177637   5 C  px               44     -0.160770   4 H  s         
    17      0.151688   2 C  px        

 Vector   61  Occ=2.000000D+00  E=-5.528337D-01
              MO Center= -3.3D-01,  1.5D+00, -5.2D-01, r^2= 9.5D+00
   Bfn.  Coefficient  Atom+Function         Bfn.  Coefficient  Atom+Function  
  ----- ------------  ---------------      ----- ------------  ---------------
   451      0.262769  26 H  s               460     -0.230103  27 H  s         
   459     -0.224987  27 H  s               430      0.221696  25 C  py        
   471      0.204380  28 C  s               450      0.195921  26 H  s         
    35      0.162146   3 H  s                15      0.152087   2 C  py        

 Vector   62  Occ=2.000000D+00  E=-5.479329D-01
              MO Center= -8.7D-01, -6.1D-01,  2.0D-01, r^2= 1.0D+01
   Bfn.  Coefficient  Atom+Function         Bfn.  Coefficient  Atom+Function  
  ----- ------------  ---------------      ----- ------------  ---------------
    15      0.240038   2 C  py              206     -0.232312  13 H  s         
    12     -0.210782   2 C  s                35      0.201372   3 H  s         
   217     -0.187472  14 C  s                 1     -0.186006   1 H  s         
   140      0.175873   9 C  s                36      0.174165   3 H  s         
   196      0.170223  12 H  s         

 Vector   63  Occ=2.000000D+00  E=-5.435867D-01
              MO Center=  1.9D-01,  1.9D+00, -5.2D-01, r^2= 7.9D+00
   Bfn.  Coefficient  Atom+Function         Bfn.  Coefficient  Atom+Function  
  ----- ------------  ---------------      ----- ------------  ---------------
   427      0.367417  25 C  s               459      0.209782  27 H  s         
   431     -0.199424  25 C  pz              400      0.171947  23 C  pz        
   417     -0.169398  24 H  s               397      0.167088  23 C  pz        
   499      0.167887  29 O  pz              592     -0.161590  34 O  pz        

 Vector   64  Occ=2.000000D+00  E=-5.360766D-01
              MO Center= -5.1D-01, -7.4D-01,  2.0D-01, r^2= 1.0D+01
   Bfn.  Coefficient  Atom+Function         Bfn.  Coefficient  Atom+Function  
  ----- ------------  ---------------      ----- ------------  ---------------
    16     -0.226246   2 C  pz               13      0.208108   2 C  s         
   173      0.190090  11 C  s               318      0.182495  19 C  py        
   140     -0.180584   9 C  s               310     -0.177367  19 C  s         
    35     -0.176198   3 H  s                44      0.171620   4 H  s         
   147      0.168259   9 C  px              177     -0.168157  11 C  pz        

 Vector   65  Occ=2.000000D+00  E=-5.300278D-01
              MO Center= -5.7D-02,  1.8D+00, -7.3D-01, r^2= 7.1D+00
   Bfn.  Coefficient  Atom+Function         Bfn.  Coefficient  Atom+Function  
  ----- ------------  ---------------      ----- ------------  ---------------
   395      0.238466  23 C  px              430      0.188432  25 C  py        
   432     -0.183002  25 C  px              318      0.165871  19 C  py        
   383      0.158885  22 H  s               498     -0.152438  29 O  py        

 Vector   66  Occ=2.000000D+00  E=-5.095142D-01
              MO Center= -6.7D-01, -9.9D-01,  7.0D-01, r^2= 6.4D+00
   Bfn.  Coefficient  Atom+Function         Bfn.  Coefficient  Atom+Function  
  ----- ------------  ---------------      ----- ------------  ---------------
   143      0.196924   9 C  pz               83      0.191398   6 O  py        
   162      0.191232  10 H  s                84     -0.184096   6 O  pz        
    45     -0.181102   4 H  s                44     -0.174716   4 H  s         
    58      0.162614   5 C  py              393     -0.163192  23 C  s         
     1      0.153897   1 H  s                15     -0.154205   2 C  py        

 Vector   67  Occ=2.000000D+00  E=-4.598032D-01
              MO Center=  1.1D+00, -9.6D-01, -2.8D-02, r^2= 8.3D+00
   Bfn.  Coefficient  Atom+Function         Bfn.  Coefficient  Atom+Function  
  ----- ------------  ---------------      ----- ------------  ---------------
   337      0.377422  20 O  py              340      0.302290  20 O  py        
   244      0.274814  15 O  py              247      0.212901  15 O  py        
   338     -0.210464  20 O  pz              341     -0.162295  20 O  pz        
   139      0.154346   9 C  s         

 Vector   68  Occ=2.000000D+00  E=-4.542659D-01
              MO Center=  1.2D+00,  1.6D+00,  2.6D-01, r^2= 6.8D+00
   Bfn.  Coefficient  Atom+Function         Bfn.  Coefficient  Atom+Function  
  ----- ------------  ---------------      ----- ------------  ---------------
   592      0.330881  34 O  pz              595      0.260900  34 O  pz        
   337     -0.239321  20 O  py              173      0.237659  11 C  s         
   363      0.228257  21 N  pz              590      0.220780  34 O  px        
   366      0.209949  21 N  pz              340     -0.198410  20 O  py        
   338     -0.185142  20 O  pz              593      0.174020  34 O  px        

 Vector   69  Occ=2.000000D+00  E=-4.434470D-01
              MO Center= -6.5D-02, -2.9D+00, -3.0D-01, r^2= 8.4D+00
   Bfn.  Coefficient  Atom+Function         Bfn.  Coefficient  Atom+Function  
  ----- ------------  ---------------      ----- ------------  ---------------
   244      0.441577  15 O  py              247      0.354232  15 O  py        
   222     -0.230965  14 C  py              270     -0.189163  16 N  pz        
   216     -0.188209  14 C  s               236     -0.165004  14 C  dyy       
   176      0.157384  11 C  py        

 Vector   70  Occ=2.000000D+00  E=-4.365495D-01
              MO Center=  1.5D-01, -4.3D+00, -3.3D-01, r^2= 4.0D+00
   Bfn.  Coefficient  Atom+Function         Bfn.  Coefficient  Atom+Function  
  ----- ------------  ---------------      ----- ------------  ---------------
   245      0.404818  15 O  pz              270     -0.336013  16 N  pz        
   248      0.318901  15 O  pz              273     -0.291905  16 N  pz        
   106      0.232323   7 N  s               163     -0.211375  10 H  s         
   269     -0.156653  16 N  py        

 Vector   71  Occ=2.000000D+00  E=-4.290927D-01
              MO Center= -1.1D+00,  2.1D+00, -6.4D-01, r^2= 5.2D+00
   Bfn.  Coefficient  Atom+Function         Bfn.  Coefficient  Atom+Function  
  ----- ------------  ---------------      ----- ------------  ---------------
   497      0.350882  29 O  px              500      0.273097  29 O  px        
   498     -0.230763  29 O  py              499     -0.213193  29 O  pz        
   501     -0.192102  29 O  py              429      0.183466  25 C  px        
   471     -0.176480  28 C  s               502     -0.164864  29 O  pz        
   524     -0.160144  30 N  pz              615     -0.157390  35 N  px        

 Vector   72  Occ=2.000000D+00  E=-4.226209D-01
              MO Center= -1.1D+00, -1.6D-01,  1.2D+00, r^2= 5.3D+00
   Bfn.  Coefficient  Atom+Function         Bfn.  Coefficient  Atom+Function  
  ----- ------------  ---------------      ----- ------------  ---------------
    82      0.452078   6 O  px               85      0.356564   6 O  px        
    13     -0.207990   2 C  s                17      0.197493   2 C  px        
    14      0.194542   2 C  px              310      0.193337  19 C  s         
   217     -0.171347  14 C  s                84     -0.153655   6 O  pz        
   140      0.151153   9 C  s         

 Vector   73  Occ=2.000000D+00  E=-4.161534D-01
              MO Center= -3.3D-01,  2.6D+00,  8.3D-02, r^2= 6.4D+00
   Bfn.  Coefficient  Atom+Function         Bfn.  Coefficient  Atom+Function  
  ----- ------------  ---------------      ----- ------------  ---------------
   499      0.335595  29 O  pz              615     -0.281171  35 N  px        
   502      0.266900  29 O  pz              618     -0.244918  35 N  px        
   523      0.223315  30 N  py              526      0.196974  30 N  py        
   590      0.172425  34 O  px              592     -0.157278  34 O  pz        

 Vector   74  Occ=2.000000D+00  E=-4.064248D-01
              MO Center= -3.8D-01,  2.6D+00,  2.3D-02, r^2= 6.3D+00
   Bfn.  Coefficient  Atom+Function         Bfn.  Coefficient  Atom+Function  
  ----- ------------  ---------------      ----- ------------  ---------------
   524      0.243808  30 N  pz              615     -0.234059  35 N  px        
   618     -0.219016  35 N  px              499     -0.210149  29 O  pz        
   526     -0.202070  30 N  py              614     -0.191241  35 N  s         
   523     -0.185379  30 N  py              592     -0.184371  34 O  pz        
   527      0.175460  30 N  pz              590      0.174535  34 O  px        

 Vector   75  Occ=2.000000D+00  E=-4.043783D-01
              MO Center=  3.3D-01,  2.5D-01,  3.6D-01, r^2= 7.7D+00
   Bfn.  Coefficient  Atom+Function         Bfn.  Coefficient  Atom+Function  
  ----- ------------  ---------------      ----- ------------  ---------------
   108      0.215577   7 N  py              109     -0.203513   7 N  pz        
   111      0.199234   7 N  py              363     -0.199989  21 N  pz        
   366     -0.193321  21 N  pz              112     -0.189221   7 N  pz        
    83     -0.178085   6 O  py              590      0.173270  34 O  px        
   338      0.170399  20 O  pz              368     -0.160081  21 N  py        

 Vector   76  Occ=2.000000D+00  E=-3.952463D-01
              MO Center=  4.3D-01,  1.8D-01,  3.1D-01, r^2= 6.5D+00
   Bfn.  Coefficient  Atom+Function         Bfn.  Coefficient  Atom+Function  
  ----- ------------  ---------------      ----- ------------  ---------------
   363      0.288135  21 N  pz              366      0.263030  21 N  pz        
   108      0.221918   7 N  py              111      0.209112   7 N  py        
   173      0.208880  11 C  s               337     -0.192351  20 O  py        
    84      0.173608   6 O  pz              109     -0.170217   7 N  pz        
    83     -0.165208   6 O  py              340     -0.165709  20 O  py        

 Vector   77  Occ=0.000000D+00  E= 2.286981D-02
              MO Center=  2.3D+00, -5.8D+00,  5.3D-01, r^2= 1.6D+01
   Bfn.  Coefficient  Atom+Function         Bfn.  Coefficient  Atom+Function  
  ----- ------------  ---------------      ----- ------------  ---------------
   217      3.501613  14 C  s               267     -3.090243  16 N  s         
   225     -2.141751  14 C  py              300     -1.894485  18 H  s         
   147      1.818896   9 C  px              291     -1.701507  17 H  s         
   174      1.407869  11 C  s                13      1.367105   2 C  s         
    63      1.249615   5 C  px              226      1.247992  14 C  pz        

 Vector   78  Occ=0.000000D+00  E= 3.490237D-02
              MO Center=  1.1D+00,  7.5D-01, -3.1D+00, r^2= 2.8D+01
   Bfn.  Coefficient  Atom+Function         Bfn.  Coefficient  Atom+Function  
  ----- ------------  ---------------      ----- ------------  ---------------
   384      7.366820  22 H  s               461     -2.899631  27 H  s         
   198     -2.671981  12 H  s               418     -2.384120  24 H  s         
   437     -2.355511  25 C  pz              318      2.281232  19 C  py        
   267      2.166316  16 N  s               428     -1.897824  25 C  s         
   147      1.883490   9 C  px              403     -1.666216  23 C  pz        

 Vector   79  Occ=0.000000D+00  E= 4.176976D-02
              MO Center= -1.6D+00,  1.0D+00,  1.5D+00, r^2= 3.7D+01
   Bfn.  Coefficient  Atom+Function         Bfn.  Coefficient  Atom+Function  
  ----- ------------  ---------------      ----- ------------  ---------------
    63      3.413075   5 C  px              471     -3.382396  28 C  s         
   521      3.328696  30 N  s               149     -2.518023   9 C  pz        
   480     -2.297410  28 C  pz              164      1.911940  10 H  s         
   310     -1.900094  19 C  s               147      1.829118   9 C  px        
   207     -1.734381  13 H  s                37      1.587027   3 H  s         

 Vector   80  Occ=0.000000D+00  E= 4.396693D-02
              MO Center=  1.3D+00, -1.6D+00,  1.3D+00, r^2= 4.0D+01
   Bfn.  Coefficient  Atom+Function         Bfn.  Coefficient  Atom+Function  
  ----- ------------  ---------------      ----- ------------  ---------------
    63      3.358608   5 C  px              564      3.097727  33 C  s         
   614     -3.044155  35 N  s               140     -2.425201   9 C  s         
   573      2.148352  33 C  pz              174     -2.104605  11 C  s         
   291      2.055531  17 H  s                13      1.895030   2 C  s         
   207     -1.871268  13 H  s               310     -1.805370  19 C  s         

 Vector   81  Occ=0.000000D+00  E= 5.025166D-02
              MO Center= -5.9D-03, -5.7D-01, -9.5D-01, r^2= 4.7D+01
   Bfn.  Coefficient  Atom+Function         Bfn.  Coefficient  Atom+Function  
  ----- ------------  ---------------      ----- ------------  ---------------
   318      5.458868  19 C  py              452     -2.892723  26 H  s         
   207      2.731946  13 H  s               147      2.606017   9 C  px        
    63      2.556982   5 C  px               12     -2.109589   2 C  s         
   174      2.080859  11 C  s               402      1.965321  23 C  py        
   225     -1.874564  14 C  py              291     -1.871967  17 H  s         

 Vector   82  Occ=0.000000D+00  E= 5.134800D-02
              MO Center= -4.4D-01,  9.7D-01,  9.5D-01, r^2= 4.5D+01
   Bfn.  Coefficient  Atom+Function         Bfn.  Coefficient  Atom+Function  
  ----- ------------  ---------------      ----- ------------  ---------------
   521      2.501717  30 N  s               471     -2.239253  28 C  s         
   614     -2.152628  35 N  s               545      2.030402  31 H  s         
   164     -2.013085  10 H  s                13      1.997694   2 C  s         
   300      1.945161  18 H  s               452      1.929291  26 H  s         
   480     -1.789362  28 C  pz              573      1.690902  33 C  pz        

 Vector   83  Occ=0.000000D+00  E= 5.569494D-02
              MO Center=  1.3D-01, -9.7D-01,  8.9D-01, r^2= 4.5D+01
   Bfn.  Coefficient  Atom+Function         Bfn.  Coefficient  Atom+Function  
  ----- ------------  ---------------      ----- ------------  ---------------
   164      3.594401  10 H  s               149     -2.993551   9 C  pz        
   428      2.818845  25 C  s               452      2.002746  26 H  s         
   573      1.979935  33 C  pz              638     -1.860114  36 H  s         
   291     -1.771836  17 H  s               198     -1.738485  12 H  s         
   182     -1.637577  11 C  py              614     -1.470756  35 N  s         

 Vector   84  Occ=0.000000D+00  E= 6.032221D-02
              MO Center=  1.0D+00, -2.0D-01, -1.2D+00, r^2= 3.7D+01
   Bfn.  Coefficient  Atom+Function         Bfn.  Coefficient  Atom+Function  
  ----- ------------  ---------------      ----- ------------  ---------------
   418      4.989976  24 H  s               207      4.467616  13 H  s         
   164     -4.243051  10 H  s               461     -4.050904  27 H  s         
   147      3.605857   9 C  px              401     -3.537471  23 C  px        
   198     -3.049309  12 H  s               384      2.890065  22 H  s         
   310     -2.556201  19 C  s                63      2.543032   5 C  px        

 Vector   85  Occ=0.000000D+00  E= 6.729115D-02
              MO Center= -1.4D+00,  3.8D-01, -3.9D-02, r^2= 4.2D+01
   Bfn.  Coefficient  Atom+Function         Bfn.  Coefficient  Atom+Function  
  ----- ------------  ---------------      ----- ------------  ---------------
   471      4.320196  28 C  s               217      4.175174  14 C  s         
   564      3.959156  33 C  s               164      3.758859  10 H  s         
   452     -3.649764  26 H  s                37      3.545933   3 H  s         
   418      3.058879  24 H  s               428     -2.956368  25 C  s         
    46     -2.911781   4 H  s                63     -2.807075   5 C  px        

 Vector   86  Occ=0.000000D+00  E= 6.915077D-02
              MO Center= -6.4D-02, -5.8D-01,  1.8D-01, r^2= 4.6D+01
   Bfn.  Coefficient  Atom+Function         Bfn.  Coefficient  Atom+Function  
  ----- ------------  ---------------      ----- ------------  ---------------
   164      4.894817  10 H  s                63     -4.091230   5 C  px        
   217     -3.421014  14 C  s               140      3.390477   9 C  s         
   148      3.093677   9 C  py              310      3.068524  19 C  s         
   300     -2.851548  18 H  s               461     -2.820463  27 H  s         
   182     -2.704010  11 C  py               46     -2.584986   4 H  s         

 Vector   87  Occ=0.000000D+00  E= 7.336662D-02
              MO Center= -1.5D+00,  9.3D-01,  3.1D-01, r^2= 4.2D+01
   Bfn.  Coefficient  Atom+Function         Bfn.  Coefficient  Atom+Function  
  ----- ------------  ---------------      ----- ------------  ---------------
   471      9.253058  28 C  s                37      4.774962   3 H  s         
   418     -4.089281  24 H  s               521     -3.736512  30 N  s         
   401      3.660257  23 C  px               46     -3.396278   4 H  s         
   452      2.776590  26 H  s               480      2.367105  28 C  pz        
   360      2.331387  21 N  s               198      2.254179  12 H  s         

 Vector   88  Occ=0.000000D+00  E= 7.818398D-02
              MO Center=  1.0D+00, -2.0D-01, -7.2D-02, r^2= 4.7D+01
   Bfn.  Coefficient  Atom+Function         Bfn.  Coefficient  Atom+Function  
  ----- ------------  ---------------      ----- ------------  ---------------
   207      6.671355  13 H  s               647      4.474170  37 H  s         
   418     -4.149064  24 H  s               300     -3.704145  18 H  s         
   217     -3.507588  14 C  s               181     -3.109488  11 C  px        
   198     -3.075340  12 H  s               554     -2.965819  32 H  s         
   452      2.557159  26 H  s               106     -2.496397   7 N  s         

 Vector   89  Occ=0.000000D+00  E= 8.151172D-02
              MO Center= -5.7D-01, -1.2D-01, -1.5D+00, r^2= 4.1D+01
   Bfn.  Coefficient  Atom+Function         Bfn.  Coefficient  Atom+Function  
  ----- ------------  ---------------      ----- ------------  ---------------
   217      5.587752  14 C  s               207      5.380200  13 H  s         
   461      5.373387  27 H  s               452     -5.185443  26 H  s         
   198     -4.661149  12 H  s                 3      3.653975   1 H  s         
   436      3.232380  25 C  py              147      2.953558   9 C  px        
    46     -2.937536   4 H  s               181     -2.813164  11 C  px        

 Vector   90  Occ=0.000000D+00  E= 9.558213D-02
              MO Center= -9.1D-01,  1.5D+00,  4.2D-01, r^2= 4.3D+01
   Bfn.  Coefficient  Atom+Function         Bfn.  Coefficient  Atom+Function  
  ----- ------------  ---------------      ----- ------------  ---------------
   217      5.632319  14 C  s               310     -5.626706  19 C  s         
   554      5.617517  32 H  s               564     -4.423310  33 C  s         
   140     -4.388245   9 C  s               471     -4.373032  28 C  s         
   545     -3.941142  31 H  s                56     -3.644712   5 C  s         
   318      3.548680  19 C  py              428      3.545669  25 C  s         

 Vector   91  Occ=0.000000D+00  E= 9.668788D-02
[...]
   182     13.834601  11 C  py              614    -13.515724  35 N  s         
   267    -12.976483  16 N  s               106     12.801684   7 N  s         
   564     12.591120  33 C  s               310    -11.388670  19 C  s         

 Vector  184  Occ=0.000000D+00  E= 4.376036D-01
              MO Center=  1.5D-01, -4.9D-01,  2.2D-01, r^2= 2.3D+01
   Bfn.  Coefficient  Atom+Function         Bfn.  Coefficient  Atom+Function  
  ----- ------------  ---------------      ----- ------------  ---------------
   217     34.536022  14 C  s               182     13.681040  11 C  py        
   471    -13.742625  28 C  s               267    -13.112095  16 N  s         
   140    -12.474292   9 C  s               402     10.237998  23 C  py        
   403     -9.893929  23 C  pz              428     -9.454666  25 C  s         
   318      7.961300  19 C  py              148      7.714568   9 C  py        

 Vector  185  Occ=0.000000D+00  E= 4.414580D-01
              MO Center= -2.0D-01,  4.9D-01,  4.7D-01, r^2= 2.0D+01
   Bfn.  Coefficient  Atom+Function         Bfn.  Coefficient  Atom+Function  
  ----- ------------  ---------------      ----- ------------  ---------------
   310     18.249561  19 C  s               140     14.755766   9 C  s         
   428    -14.581111  25 C  s               614     13.114642  35 N  s         
   368     11.185505  21 N  py              521     10.532062  30 N  s         
    63     -9.853026   5 C  px              147     -9.383043   9 C  px        
   106     -9.293933   7 N  s               174      9.123310  11 C  s         

 Vector  186  Occ=0.000000D+00  E= 4.448621D-01
              MO Center= -7.6D-01, -8.6D-02, -9.6D-02, r^2= 2.4D+01
   Bfn.  Coefficient  Atom+Function         Bfn.  Coefficient  Atom+Function  
  ----- ------------  ---------------      ----- ------------  ---------------
   360     12.573939  21 N  s                13     12.132055   2 C  s         
   140     -9.376509   9 C  s               310     -7.966503  19 C  s         
   403     -7.665343  23 C  pz              147      7.398159   9 C  px        
    63      7.205600   5 C  px              182      7.209913  11 C  py        
     2     -6.835935   1 H  s               217      6.666618  14 C  s         

 Vector  187  Occ=0.000000D+00  E= 4.462170D-01
              MO Center= -3.8D-01, -3.4D-01,  1.0D-01, r^2= 2.0D+01
   Bfn.  Coefficient  Atom+Function         Bfn.  Coefficient  Atom+Function  
  ----- ------------  ---------------      ----- ------------  ---------------
   310    -18.090226  19 C  s               106     16.688854   7 N  s         
   217     14.642108  14 C  s               394    -13.947821  23 C  s         
   471     13.910165  28 C  s               140    -13.726162   9 C  s         
    56    -12.938020   5 C  s               564    -12.071754  33 C  s         
   360     10.551358  21 N  s               614      8.939656  35 N  s         

 Vector  188  Occ=0.000000D+00  E= 4.493498D-01
              MO Center=  4.1D-01, -1.1D+00,  3.4D-02, r^2= 2.0D+01
   Bfn.  Coefficient  Atom+Function         Bfn.  Coefficient  Atom+Function  
  ----- ------------  ---------------      ----- ------------  ---------------
   318     17.189700  19 C  py              310     13.867442  19 C  s         
   471     12.906611  28 C  s               564    -12.626009  33 C  s         
   521    -11.354581  30 N  s               140     10.900172   9 C  s         
   217    -10.920739  14 C  s               360     -8.559736  21 N  s         
   173      8.459348  11 C  s               174      8.062204  11 C  s         

 Vector  189  Occ=0.000000D+00  E= 4.562379D-01
              MO Center=  3.8D-01, -6.5D-01,  4.0D-01, r^2= 1.9D+01
   Bfn.  Coefficient  Atom+Function         Bfn.  Coefficient  Atom+Function  
  ----- ------------  ---------------      ----- ------------  ---------------
   471     13.770005  28 C  s               360     11.498945  21 N  s         
   428     -9.621729  25 C  s               106      9.234884   7 N  s         
   140     -8.502504   9 C  s               564      7.849556  33 C  s         
   174     -7.607925  11 C  s               148     -6.536591   9 C  py        
   384      6.336892  22 H  s               183     -5.562804  11 C  pz        

 Vector  190  Occ=0.000000D+00  E= 4.580685D-01
              MO Center= -3.7D-01,  4.1D-01, -3.4D-01, r^2= 2.2D+01
   Bfn.  Coefficient  Atom+Function         Bfn.  Coefficient  Atom+Function  
  ----- ------------  ---------------      ----- ------------  ---------------
   106    -12.242436   7 N  s                13     11.817613   2 C  s         
   521    -11.178281  30 N  s               403     10.360447  23 C  pz        
    56      9.929148   5 C  s               360     -9.314312  21 N  s         
   471      8.491894  28 C  s               113      8.392751   7 N  px        
    63      8.261886   5 C  px              402     -6.177955  23 C  py        

 Vector  191  Occ=0.000000D+00  E= 4.591524D-01
              MO Center= -1.4D+00, -1.2D+00, -1.3D-01, r^2= 1.9D+01
   Bfn.  Coefficient  Atom+Function         Bfn.  Coefficient  Atom+Function  
  ----- ------------  ---------------      ----- ------------  ---------------
   428     13.147049  25 C  s                63      7.439040   5 C  px        
   113     -6.796939   7 N  px              384     -6.595071  22 H  s         
   197     -6.082814  12 H  s               403      5.747583  23 C  pz        
   471      5.512079  28 C  s               217      5.404901  14 C  s         
   147      5.229263   9 C  px              183     -5.194988  11 C  pz        

 Vector  192  Occ=0.000000D+00  E= 4.656234D-01
              MO Center= -6.3D-01, -4.7D-01,  4.1D-01, r^2= 2.0D+01
   Bfn.  Coefficient  Atom+Function         Bfn.  Coefficient  Atom+Function  
  ----- ------------  ---------------      ----- ------------  ---------------
   217     15.714934  14 C  s               318     12.648777  19 C  py        
   182     11.103048  11 C  py              471     -9.677540  28 C  s         
   428     -8.581893  25 C  s               267     -8.367482  16 N  s         
   360      8.389794  21 N  s               614      8.070862  35 N  s         
   521      7.999572  30 N  s               564     -7.191001  33 C  s         

 Vector  193  Occ=0.000000D+00  E= 4.693930D-01
              MO Center=  3.0D-01, -6.1D-01, -2.1D-01, r^2= 2.1D+01
   Bfn.  Coefficient  Atom+Function         Bfn.  Coefficient  Atom+Function  
  ----- ------------  ---------------      ----- ------------  ---------------
   564     16.413686  33 C  s               402    -10.827828  23 C  py        
   310    -10.307127  19 C  s               148    -10.025328   9 C  py        
   319     10.022439  19 C  pz              368     -9.273708  21 N  py        
   140     -9.197172   9 C  s               427      5.571718  25 C  s         
   163      5.476994  10 H  s               614     -5.354270  35 N  s         

 Vector  194  Occ=0.000000D+00  E= 4.720107D-01
              MO Center=  2.1D-01,  2.1D-01, -2.5D-01, r^2= 2.1D+01
   Bfn.  Coefficient  Atom+Function         Bfn.  Coefficient  Atom+Function  
  ----- ------------  ---------------      ----- ------------  ---------------
   318     19.766214  19 C  py              217     15.697686  14 C  s         
   564     15.549725  33 C  s               614    -13.464040  35 N  s         
   360    -13.275850  21 N  s               182     11.731540  11 C  py        
   384    -11.234044  22 H  s                13     -8.231818   2 C  s         
   173      7.816539  11 C  s               401     -7.490679  23 C  px        

 Vector  195  Occ=0.000000D+00  E= 4.761854D-01
              MO Center= -3.4D-01, -5.9D-01,  6.3D-02, r^2= 2.2D+01
   Bfn.  Coefficient  Atom+Function         Bfn.  Coefficient  Atom+Function  
  ----- ------------  ---------------      ----- ------------  ---------------
    13     17.243506   2 C  s               360     12.592889  21 N  s         
   471    -10.244997  28 C  s                63      8.246391   5 C  px        
   394      7.932400  23 C  s               428      6.598357  25 C  s         
    36     -6.369326   3 H  s               114     -6.218365   7 N  py        
   267     -6.029602  16 N  s               318     -6.009243  19 C  py        

 Vector  196  Occ=0.000000D+00  E= 4.814797D-01
              MO Center=  7.0D-02,  1.6D+00,  3.1D-01, r^2= 2.0D+01
   Bfn.  Coefficient  Atom+Function         Bfn.  Coefficient  Atom+Function  
  ----- ------------  ---------------      ----- ------------  ---------------
   471     27.439219  28 C  s               318    -19.568465  19 C  py        
   428     17.799596  25 C  s               401     12.627064  23 C  px        
   521    -12.032801  30 N  s                56    -11.534696   5 C  s         
   148     10.991717   9 C  py              402    -11.024888  23 C  py        
   384    -10.852706  22 H  s               106     -9.230701   7 N  s         

 Vector  197  Occ=0.000000D+00  E= 4.840457D-01
              MO Center=  5.8D-01, -9.8D-01,  2.7D-02, r^2= 2.3D+01
   Bfn.  Coefficient  Atom+Function         Bfn.  Coefficient  Atom+Function  
  ----- ------------  ---------------      ----- ------------  ---------------
   564    -21.128597  33 C  s               318     19.654838  19 C  py        
   428     15.427586  25 C  s               360    -14.326456  21 N  s         
   174     13.854396  11 C  s               403      8.992922  23 C  pz        
   394     -7.418485  23 C  s                13      7.045708   2 C  s         
   367      6.995083  21 N  px              140      6.773773   9 C  s         

 Vector  198  Occ=0.000000D+00  E= 4.932547D-01
              MO Center= -6.5D-01,  1.0D+00, -7.0D-03, r^2= 1.7D+01
   Bfn.  Coefficient  Atom+Function         Bfn.  Coefficient  Atom+Function  
  ----- ------------  ---------------      ----- ------------  ---------------
   471     20.378570  28 C  s                13    -17.418306   2 C  s         
   310     15.537891  19 C  s               140     13.472583   9 C  s         
    63    -12.673419   5 C  px               56    -12.497709   5 C  s         
   318    -12.369587  19 C  py              147    -12.112111   9 C  px        
   521    -11.040799  30 N  s               564     -7.945474  33 C  s         

 Vector  199  Occ=0.000000D+00  E= 4.957671D-01
              MO Center=  1.3D-01, -4.3D-01, -1.7D-01, r^2= 2.2D+01
   Bfn.  Coefficient  Atom+Function         Bfn.  Coefficient  Atom+Function  
  ----- ------------  ---------------      ----- ------------  ---------------
   217     21.831481  14 C  s               318     15.347125  19 C  py        
   182     11.458747  11 C  py              614      9.858152  35 N  s         
   471     -9.489725  28 C  s               140     -9.024714   9 C  s         
   267     -8.848131  16 N  s                63      7.970522   5 C  px        
   174      7.778659  11 C  s                13      7.578175   2 C  s         

 Vector  200  Occ=0.000000D+00  E= 5.006567D-01
              MO Center= -7.5D-01,  5.7D-01,  5.8D-02, r^2= 2.0D+01
   Bfn.  Coefficient  Atom+Function         Bfn.  Coefficient  Atom+Function  
  ----- ------------  ---------------      ----- ------------  ---------------
   471    -16.344473  28 C  s               428    -16.222355  25 C  s         
    56     16.019837   5 C  s               564     12.201139  33 C  s         
   403    -10.953051  23 C  pz              318     10.595796  19 C  py        
   402      9.602578  23 C  py              435     -7.931505  25 C  px        
   147      7.674618   9 C  px              401     -7.025810  23 C  px        


 center of mass
 --------------
 x =   0.01779781 y =   0.02107105 z =   0.00248723

 moments of inertia (a.u.)
 ------------------
        8445.053412562855          -0.000000000000           0.000000000002
          -0.000000000000        3296.436877959834           0.000000000000
           0.000000000002           0.000000000000        9854.613229008046

  Mulliken analysis of the total density
  --------------------------------------

    Atom       Charge   Shell Charges
 -----------   ------   -------------------------------------------------------
    1 H    1     0.83   0.77  0.09  0.01  0.03 -0.07
    2 C    6     6.31   2.01  0.66  0.27  0.15  2.07  1.00 -0.02  0.06  0.10
    3 H    1     0.96   0.77  0.23  0.00  0.03 -0.07
    4 H    1     0.82   0.76  0.10  0.01  0.03 -0.07
    5 C    6     5.26   2.01  0.68  0.11  0.00  1.90  0.38 -0.05  0.24 -0.01
    6 O    8     8.81   2.01  0.82  1.01  0.18  2.79  1.84  0.16  0.01 -0.01
    7 N    7     7.68   2.01  0.72  0.87 -0.09  2.46  1.46  0.18  0.05  0.03
    8 H    1     0.92   0.75  0.19 -0.01  0.06 -0.06
    9 C    6     6.06   2.01  0.66  0.08 -0.00  1.99  0.89  0.18  0.14  0.12
   10 H    1     1.11   0.78  0.28 -0.01  0.03  0.03
   11 C    6     6.46   2.01  0.66  0.76 -0.11  2.06  0.87 -0.06  0.09  0.18
   12 H    1     0.83   0.77  0.09 -0.00  0.03 -0.06
   13 H    1     0.98   0.78  0.24  0.00  0.03 -0.07
   14 C    6     4.52   2.01  0.68 -0.03  0.13  1.91 -0.27  0.02  0.24 -0.17
   15 O    8     8.79   2.01  0.82  1.02  0.17  2.80  1.84  0.13  0.02 -0.01
   16 N    7     7.15   2.01  0.72  0.77 -0.19  2.47  1.26  0.09  0.04 -0.02
   17 H    1     0.98   0.75  0.20 -0.01  0.06 -0.02
   18 H    1     0.97   0.76  0.21 -0.01  0.06 -0.04
   19 C    6     4.75   2.01  0.68  0.23  0.00  1.89  0.22 -0.13  0.24 -0.38
   20 O    8     8.97   2.01  0.82  1.05  0.23  2.79  1.88  0.17  0.01 -0.00
   21 N    7     7.40   2.01  0.72  0.82 -0.13  2.45  1.40  0.04  0.05  0.03
   22 H    1     0.84   0.74  0.28 -0.04  0.06 -0.19
   23 C    6     6.40   2.01  0.66  0.08 -0.02  1.99  1.35  0.08  0.14  0.11
   24 H    1     1.03   0.78  0.24 -0.01  0.03 -0.00
   25 C    6     6.31   2.01  0.66  0.72 -0.02  2.06  0.72 -0.03  0.09  0.10
   26 H    1     0.95   0.77  0.22 -0.01  0.03 -0.07
   27 H    1     0.84   0.78  0.11 -0.00  0.03 -0.07
   28 C    6     4.61   2.01  0.68  0.03 -0.01  1.91 -0.12 -0.01  0.24 -0.11
   29 O    8     8.88   2.01  0.81  1.03  0.19  2.80  1.85  0.17  0.02 -0.00
   30 N    7     7.19   2.01  0.72  0.75 -0.12  2.47  1.26  0.09  0.04 -0.03
   31 H    1     1.00   0.76  0.22 -0.01  0.05 -0.03
   32 H    1     0.89   0.73  0.17 -0.01  0.06 -0.06
   33 C    6     4.43   2.01  0.68  0.02  0.06  1.88 -0.16 -0.07  0.23 -0.23
   34 O    8     8.86   2.01  0.82  1.04  0.17  2.80  1.86  0.16  0.01 -0.00
   35 N    7     7.29   2.01  0.72  0.86 -0.15  2.46  1.26  0.10  0.04 -0.00
   36 H    1     1.02   0.76  0.24 -0.00  0.05 -0.03
   37 H    1     0.91   0.74  0.18 -0.01  0.06 -0.05

       Multipole analysis of the density wrt the origin
       ------------------------------------------------

     L   x y z        total         open         nuclear
     -   - - -        -----         ----         -------
     0   0 0 0      0.000000      0.000000    152.000000

     1   1 0 0      0.856970      0.000000     -0.000000
     1   0 1 0     -1.387302      0.000000     -0.000000
     1   0 0 1     -0.148043      0.000000      0.000000

     2   2 0 0    -90.651298      0.000000   1296.569215
     2   1 1 0    -11.756757      0.000000    -16.593446
     2   1 0 1     -3.094670      0.000000    -13.268789
     2   0 2 0    -77.869875      0.000000   4018.603926
     2   0 1 1     -4.528076      0.000000    -10.775410
     2   0 0 2    -88.669270      0.000000    526.436095


 Task  times  cpu:     5250.2s     wall:     5274.9s


                                NWChem Input Module
                                -------------------


 Summary of allocated global arrays
-----------------------------------
  No active global arrays


MA_summarize_allocated_blocks: starting scan ...
MA_summarize_allocated_blocks: scan completed: 0 heap blocks, 0 stack blocks
MA usage statistics:

	allocation statistics:
					      heap	     stack
					      ----	     -----
	current number of blocks	         0	         0
	maximum number of blocks	        16	        14
	current total bytes		         0	         0
	maximum total bytes		    138352	  29746648
	maximum total K-bytes		       139	     29747
	maximum total M-bytes		         1	        30


                                     CITATION
                                     --------
                Please cite the following reference when publishing
                           results obtained with NWChem:

          E. Apra, E. J. Bylaska, W. A. de Jong, N. Govind, K. Kowalski,
       T. P. Straatsma, M. Valiev, H. J. J. van Dam, Y. Alexeev, J. Anchell,
       V. Anisimov, F. W. Aquino, R. Atta-Fynn, J. Autschbach, N. P. Bauman,
     J. C. Becca, D. E. Bernholdt, K. Bhaskaran-Nair, S. Bogatko, P. Borowski,
         J. Boschen, J. Brabec, A. Bruner, E. Cauet, Y. Chen, G. N. Chuev,
      C. J. Cramer, J. Daily, M. J. O. Deegan, T. H. Dunning Jr., M. Dupuis,
   K. G. Dyall, G. I. Fann, S. A. Fischer, A. Fonari, H. Fruchtl, L. Gagliardi,
      J. Garza, N. Gawande, S. Ghosh, K. Glaesemann, A. W. Gotz, J. Hammond,
       V. Helms, E. D. Hermes, K. Hirao, S. Hirata, M. Jacquelin, L. Jensen,
   B. G. Johnson, H. Jonsson, R. A. Kendall, M. Klemm, R. Kobayashi, V. Konkov,
      S. Krishnamoorthy, M. Krishnan, Z. Lin, R. D. Lins, R. J. Littlefield,
      A. J. Logsdail, K. Lopata, W. Ma, A. V. Marenich, J. Martin del Campo,
   D. Mejia-Rodriguez, J. E. Moore, J. M. Mullin, T. Nakajima, D. R. Nascimento,
    J. A. Nichols, P. J. Nichols, J. Nieplocha, A. Otero-de-la-Roza, B. Palmer,
    A. Panyala, T. Pirojsirikul, B. Peng, R. Peverati, J. Pittner, L. Pollack,
   R. M. Richard, P. Sadayappan, G. C. Schatz, W. A. Shelton, D. W. Silverstein,
   D. M. A. Smith, T. A. Soares, D. Song, M. Swart, H. L. Taylor, G. S. Thomas,
            V. Tipparaju, D. G. Truhlar, K. Tsemekhman, T. Van Voorhis,
      A. Vazquez-Mayagoitia, P. Verma, O. Villa, A. Vishnu, K. D. Vogiatzis,
        D. Wang, J. H. Weare, M. J. Williamson, T. L. Windus, K. Wolinski,
        A. T. Wong, Q. Wu, C. Yang, Q. Yu, M. Zacharias, Z. Zhang, Y. Zhao,
                                and R. J. Harrison
                        "NWChem: Past, present, and future
                         J. Chem. Phys. 152, 184102 (2020)
                               doi:10.1063/5.0004997

                                      AUTHORS
                                      -------
  E. Apra, E. J. Bylaska, N. Govind, K. Kowalski, M. Valiev, D. Mejia-Rodriguez,
       A. Kunitsa, N. P. Bauman, A. Panyala, W. A. de Jong, T. P. Straatsma,
   H. J. J. van Dam, D. Wang, T. L. Windus, J. Hammond, J. Autschbach, A. Woods,
    K. Bhaskaran-Nair, J. Brabec, K. Lopata, S. A. Fischer, S. Krishnamoorthy,
     M. Jacquelin, W. Ma, M. Klemm, O. Villa, Y. Chen, V. Anisimov, F. Aquino,
     S. Hirata, M. T. Hackler, E. Hermes, L. Jensen, J. E. Moore, J. C. Becca,
      V. Konjkov, T. Risthaus, M. Malagoli, A. Marenich, A. Otero-de-la-Roza,
        J. Mullin, P. Nichols, R. Peverati, J. Pittner, Y. Zhao, P.-D. Fan,
        A. Fonari, M. J. Williamson, R. J. Harrison, J. R. Rehr, M. Dupuis,
     D. Silverstein, D. M. A. Smith, J. Nieplocha, V. Tipparaju, M. Krishnan,
     B. E. Van Kuiken, A. Vazquez-Mayagoitia, M. Swart, Q. Wu, T. Van Voorhis,
     A. A. Auer, M. Nooijen, L. D. Crosby, E. Brown, G. Cisneros, G. I. Fann,
   H. Fruchtl, J. Garza, K. Hirao, R. A. Kendall, J. A. Nichols, K. Tsemekhman,
    K. Wolinski, J. Anchell, D. E. Bernholdt, P. Borowski, T. Clark, D. Clerc,
   H. Dachsel, M. J. O. Deegan, K. Dyall, D. Elwood, E. Glendening, M. Gutowski,
   A. C. Hess, J. Jaffe, B. G. Johnson, J. Ju, R. Kobayashi, R. Kutteh, Z. Lin,
   R. Littlefield, X. Long, B. Meng, T. Nakajima, S. Niu, L. Pollack, M. Rosing,
   K. Glaesemann, G. Sandrone, M. Stave, H. Taylor, G. Thomas, J. H. van Lenthe,
                               A. T. Wong, Z. Zhang.

 Total times  cpu:     5250.2s     wall:     5275.3s
