export TMOUT=5400
export TMPDIR=/tmp
export PTMPDIR=/tmp/ptmp
 argument  1 = inputs/ASN_CYS_4.nw



============================== echo of input deck ==============================
start ASN_CYS_4
geometry
H         10.93800       13.46800       -0.87600
C         11.96700       13.13900       -0.74300
H         12.64400       13.88300       -1.16200
H         12.12200       12.18600       -1.24500
C         12.26000       12.98400        0.73000
O         13.15100       13.64300        1.25600
N         11.51500       12.10600        1.40200
H         10.82200       11.57800        0.89900
C         11.73200       11.80200        2.81900
H         11.82400       12.74500        3.36400
C         10.51500       11.05200        3.39100
H          9.62000       11.66500        3.29000
H         10.37400       10.12200        2.84100
C         10.70700       10.72200        4.86500
O         11.50600       11.31900        5.56800
N          9.98900        9.75500        5.38400
H          9.36000        9.22100        4.81600
H         10.16300        9.54700        6.35100
C         13.04400       11.02300        3.03200
O         13.06000        9.79400        3.01900
N         14.13500       11.75400        3.24600
H         14.05100       12.75500        3.13600
C         15.46600       11.20900        3.52300
H         15.61100       10.32400        2.90100
C         16.51300       12.25500        3.10700
H         16.40500       13.15400        3.71600
H         17.51100       11.84300        3.27500
S         16.33700       12.67600        1.34400
H         15.11700       13.23700        1.39700
C         15.66200       10.74300        4.98500
O         16.77400       10.42700        5.38900
N         14.62600       10.71700        5.81800
H         13.70000       10.96400        5.50000
H         14.78500       10.41600        6.76400
end

basis
 * library aug-cc-pvdz
end

echo

scf
 direct
end

task scf energy
================================================================================


                                         
                                         


             Northwest Computational Chemistry Package (NWChem) 7.2.0
             --------------------------------------------------------


                    Environmental Molecular Sciences Laboratory
                       Pacific Northwest National Laboratory
                                Richland, WA 99352

                              Copyright (c) 1994-2022
                       Pacific Northwest National Laboratory
                            Battelle Memorial Institute

             NWChem is an open-source computational chemistry package
                        distributed under the terms of the
                      Educational Community License (ECL) 2.0
             A copy of the license is included with this distribution
                              in the LICENSE.TXT file

                                  ACKNOWLEDGMENT
                                  --------------

            This software and its documentation were developed at the
            EMSL at Pacific Northwest National Laboratory, a multiprogram
            national laboratory, operated for the U.S. Department of Energy
            by Battelle under Contract Number DE-AC05-76RL01830. Support
            for this work was provided by the Department of Energy Office
            of Biological and Environmental Research, Office of Basic
            Energy Sciences, and the Office of Advanced Scientific Computing.


           Job information
           ---------------

    hostname        = nova21-speedy-11
    program         = /opt/rit/el9/20230413/app/linux-rhel9-x86_64_v3/gcc-11.2.1/nwchem-7.2.0-oxtctbuhfuzyfaoziquq6bki22grib3g/bin/nwchem
    date            = Thu Jul 10 05:27:41 2025

    compiled        = Wed_May_17_23:46:39_2023
    source          = /tmp/root/spack-stage/spack-stage-nwchem-7.2.0-oxtctbuhfuzyfaoziquq6bki22grib3g/spack-src
    nwchem branch   = 7.2.0
    nwchem revision = d0d141fd
    ga revision     = 5.8.0
    use scalapack   = T
    input           = inputs/ASN_CYS_4.nw
    prefix          = ASN_CYS_4.
    data base       = ./ASN_CYS_4.db
    status          = startup
    nproc           =        8
    time left       =     -1s



           Memory information
           ------------------

    heap     =   26214394 doubles =    200.0 Mbytes
    stack    =   26214399 doubles =    200.0 Mbytes
    global   =   52428800 doubles =    400.0 Mbytes (distinct from heap & stack)
    total    =  104857593 doubles =    800.0 Mbytes
    verify   = yes
    hardfail = no 


           Directory information
           ---------------------

  0 permanent = .
  0 scratch   = .




                                NWChem Input Module
                                -------------------



 Scaling coordinates for geometry "geometry" by  1.889725989
 (inverse scale =  0.529177249)

 C1  symmetry detected

          ------
          auto-z
          ------
  no constraints, skipping    0.0000000000000000     
  no constraints, skipping    0.0000000000000000     


                             Geometry "geometry" -> ""
                             -------------------------

 Output coordinates in angstroms (scale by  1.889725989 to convert to a.u.)

  No.       Tag          Charge          X              Y              Z
 ---- ---------------- ---------- -------------- -------------- --------------
    1 H                    1.0000    -5.02463502    -0.62686306    -0.01267296
    2 C                    6.0000    -4.38704294     0.20016094    -0.31972120
    3 H                    1.0000    -4.77902425     1.13219299     0.08659506
    4 H                    1.0000    -4.35585402     0.26419595    -1.40561474
    5 C                    6.0000    -2.99018557    -0.01670730     0.21071322
    6 O                    8.0000    -2.48195426     0.80367090     0.96802329
    7 N                    7.0000    -2.35974511    -1.12105632    -0.18985022
    8 H                    1.0000    -2.82661598    -1.73426477    -0.83641729
    9 C                    6.0000    -0.97766359    -1.42706790     0.18909777
   10 H                    1.0000    -0.87472476    -1.27919061     1.26718585
   11 C                    6.0000    -0.66269091    -2.90445606    -0.10904556
   12 H                    1.0000    -1.33825853    -3.54878759     0.45259514
   13 H                    1.0000    -0.79379877    -3.09277024    -1.17423544
   14 C                    6.0000     0.76770837    -3.25718506     0.27563635
   15 O                    8.0000     1.41285347    -2.59055223     1.06835791
   16 N                    7.0000     1.31783107    -4.31167408    -0.27698641
   17 H                    1.0000     0.82394974    -4.84759386    -0.96422160
   18 H                    1.0000     2.27112500    -4.49677438    -0.02086618
   19 C                    6.0000     0.01779136    -0.47324131    -0.49853460
   20 O                    8.0000     0.51391188    -0.75336609    -1.58769049
   21 N                    7.0000     0.31433361     0.64391573     0.16060183
   22 H                    1.0000    -0.21688597     0.84347836     0.99674626
   23 C                    6.0000     1.27478238     1.65262556    -0.29256221
   24 H                    1.0000     1.17491140     1.76056337    -1.37400070
   25 C                    6.0000     0.90362235     2.99788759     0.35233415
   26 H                    1.0000     1.00114533     2.93138792     1.43714430
   27 H                    1.0000     1.59221834     3.76551590    -0.00898889
   28 S                   16.0000    -0.79744477     3.47556742    -0.08877650
   29 H                    1.0000    -1.44828807     2.47237388     0.52435948
   30 C                    6.0000     2.75217401     1.27417049    -0.03352220
   31 O                    8.0000     3.64095850     2.09818151    -0.20869059
   32 N                    7.0000     3.05777856     0.05993476     0.41380147
   33 H                    1.0000     2.33951749    -0.63578836     0.55408463
   34 H                    1.0000     4.02581797    -0.15518941     0.57938917

      Atomic Mass 
      ----------- 

      H                  1.007825
      C                 12.000000
      O                 15.994910
      N                 14.003070
      S                 31.972070


 Effective nuclear repulsion energy (a.u.)    1570.4898876403

            Nuclear Dipole moment (a.u.) 
            ----------------------------
        X                 Y               Z
 ---------------- ---------------- ----------------
     0.0000000000     0.0000000000    -0.0000000000



                                Z-matrix (autoz)
                                -------- 

 Units are Angstrom for bonds and degrees for angles

      Type          Name      I     J     K     L     M      Value
      ----------- --------  ----- ----- ----- ----- ----- ----------
    1 Stretch                  1     2                       1.08847
    2 Stretch                  2     3                       1.08969
    3 Stretch                  2     4                       1.08823
    4 Stretch                  2     5                       1.50984
    5 Stretch                  5     6                       1.22672
    6 Stretch                  5     7                       1.33323
    7 Stretch                  7     8                       1.00600
    8 Stretch                  7     9                       1.46540
    9 Stretch                  9    10                       1.09304
   10 Stretch                  9    11                       1.53973
   11 Stretch                  9    19                       1.54063
   12 Stretch                 11    12                       1.08949
   13 Stretch                 11    13                       1.08962
   14 Stretch                 11    14                       1.52264
   15 Stretch                 14    15                       1.22025
   16 Stretch                 14    16                       1.31148
   17 Stretch                 16    17                       1.00171
   18 Stretch                 16    18                       1.00431
   19 Stretch                 19    20                       1.22917
   20 Stretch                 19    21                       1.33058
   21 Stretch                 21    22                       1.01052
   22 Stretch                 21    23                       1.46469
   23 Stretch                 23    24                       1.09139
   24 Stretch                 23    25                       1.53733
   25 Stretch                 23    30                       1.54694
   26 Stretch                 25    26                       1.09121
   27 Stretch                 25    27                       1.09269
   28 Stretch                 25    28                       1.82109
   29 Stretch                 28    29                       1.34385
   30 Stretch                 30    31                       1.22459
   31 Stretch                 30    32                       1.32961
   32 Stretch                 32    33                       1.00976
   33 Stretch                 32    34                       1.00538
   34 Bend                     1     2     3               109.51037
   35 Bend                     1     2     4               110.05878
   36 Bend                     1     2     5               109.49328
   37 Bend                     2     5     6               120.27345
   38 Bend                     2     5     7               116.80210
   39 Bend                     3     2     4               109.39345
   40 Bend                     3     2     5               108.94490
   41 Bend                     4     2     5               109.42073
   42 Bend                     5     7     8               118.59111
   43 Bend                     5     7     9               122.76968
   44 Bend                     6     5     7               122.92365
   45 Bend                     7     9    10               108.39883
   46 Bend                     7     9    11               110.07373
   47 Bend                     7     9    19               111.38853
   48 Bend                     8     7     9               118.46439
   49 Bend                     9    11    12               109.92533
   50 Bend                     9    11    13               109.29940
   51 Bend                     9    11    14               111.44003
   52 Bend                     9    19    20               121.01000
   53 Bend                     9    19    21               116.27688
   54 Bend                    10     9    11               107.54960
   55 Bend                    10     9    19               107.19440
   56 Bend                    11     9    19               112.05185
   57 Bend                    11    14    15               122.29227
   58 Bend                    11    14    16               118.28526
   59 Bend                    12    11    13               109.09449
   60 Bend                    12    11    14               108.37711
   61 Bend                    13    11    14               108.66137
   62 Bend                    14    16    17               120.82679
   63 Bend                    14    16    18               116.03330
   64 Bend                    15    14    16               119.42109
   65 Bend                    17    16    18               122.98040
   66 Bend                    19    21    22               117.29310
   67 Bend                    19    21    23               124.82685
   68 Bend                    20    19    21               122.70651
   69 Bend                    21    23    24               108.34130
   70 Bend                    21    23    25               108.33311
   71 Bend                    21    23    30               113.95137
   72 Bend                    22    21    23               117.69148
   73 Bend                    23    25    26               110.00643
   74 Bend                    23    25    27               108.89789
   75 Bend                    23    25    28               110.69794
   76 Bend                    23    30    31               120.30345
   77 Bend                    23    30    32               119.95159
   78 Bend                    24    23    25               107.88033
   79 Bend                    24    23    30               106.11201
   80 Bend                    25    23    30               111.98816
   81 Bend                    25    28    29                98.39897
   82 Bend                    26    25    27               108.37435
   83 Bend                    26    25    28               109.89316
   84 Bend                    27    25    28               108.92201
   85 Bend                    30    32    33               120.82784
   86 Bend                    30    32    34               118.17223
   87 Bend                    31    30    32               119.72295
   88 Bend                    33    32    34               120.97008
   89 Torsion                  1     2     5     6        -120.11159
   90 Torsion                  1     2     5     7          60.20542
   91 Torsion                  2     5     7     8           1.68955
   92 Torsion                  2     5     7     9         176.80609
   93 Torsion                  3     2     5     6          -0.37048
   94 Torsion                  3     2     5     7         179.94654
   95 Torsion                  4     2     5     6         119.18515
   96 Torsion                  4     2     5     7         -60.49784
   97 Torsion                  5     7     9    10          47.92004
   98 Torsion                  5     7     9    11         165.29951
   99 Torsion                  5     7     9    19         -69.78135
  100 Torsion                  6     5     7     8        -177.98429
  101 Torsion                  6     5     7     9          -2.86775
  102 Torsion                  7     9    11    12         -59.73972
  103 Torsion                  7     9    11    13          59.97054
  104 Torsion                  7     9    11    14        -179.91373
  105 Torsion                  7     9    19    20         -90.80697
  106 Torsion                  7     9    19    21          90.10410
  107 Torsion                  8     7     9    10        -136.95754
  108 Torsion                  8     7     9    11         -19.57806
  109 Torsion                  8     7     9    19         105.34107
  110 Torsion                  9    11    14    15          20.48004
  111 Torsion                  9    11    14    16        -159.09001
  112 Torsion                  9    19    21    22          -7.67096
  113 Torsion                  9    19    21    23         177.45002
  114 Torsion                 10     9    11    12          58.16581
  115 Torsion                 10     9    11    13         177.87607
  116 Torsion                 10     9    11    14         -62.00820
  117 Torsion                 10     9    19    20         150.76644
  118 Torsion                 10     9    19    21         -28.32249
  119 Torsion                 11     9    19    20          32.99790
  120 Torsion                 11     9    19    21        -146.09103
  121 Torsion                 11    14    16    17           2.63648
  122 Torsion                 11    14    16    18         178.17946
  123 Torsion                 12    11     9    19         175.72235
  124 Torsion                 12    11    14    15        -100.60214
  125 Torsion                 12    11    14    16          79.82782
  126 Torsion                 13    11     9    19         -64.56739
  127 Torsion                 13    11    14    15         140.97126
  128 Torsion                 13    11    14    16         -38.59879
  129 Torsion                 14    11     9    19          55.54835
  130 Torsion                 15    14    16    17        -176.94626
  131 Torsion                 15    14    16    18          -1.40327
  132 Torsion                 19    21    23    24          38.71973
  133 Torsion                 19    21    23    25         155.50252
  134 Torsion                 19    21    23    30         -79.13173
  135 Torsion                 20    19    21    22         173.25703
  136 Torsion                 20    19    21    23          -1.62199
  137 Torsion                 21    23    25    26          63.45951
  138 Torsion                 21    23    25    27        -177.90572
  139 Torsion                 21    23    25    28         -58.18656
  140 Torsion                 21    23    30    31        -170.74328
  141 Torsion                 21    23    30    32           7.54541
  142 Torsion                 22    21    23    24        -136.14068
  143 Torsion                 22    21    23    25         -19.35789
  144 Torsion                 22    21    23    30         106.00786
  145 Torsion                 23    25    28    29          64.62755
  146 Torsion                 23    30    32    33           2.40916
  147 Torsion                 23    30    32    34        -179.55905
  148 Torsion                 24    23    25    26        -179.46093
  149 Torsion                 24    23    25    27         -60.82616
  150 Torsion                 24    23    25    28          58.89300
  151 Torsion                 24    23    30    31          70.13147
  152 Torsion                 24    23    30    32        -111.57984
  153 Torsion                 25    23    30    31         -47.33897
  154 Torsion                 25    23    30    32         130.94972
  155 Torsion                 26    25    23    30         -63.05416
  156 Torsion                 26    25    28    29         -57.08515
  157 Torsion                 27    25    23    30          55.58061
  158 Torsion                 27    25    28    29        -175.66777
  159 Torsion                 28    25    23    30         175.29977
  160 Torsion                 31    30    32    33        -179.29216
  161 Torsion                 31    30    32    34          -1.26037


            XYZ format geometry
            -------------------
    34
 geometry
 H                    -5.02463502    -0.62686306    -0.01267296
 C                    -4.38704294     0.20016094    -0.31972120
 H                    -4.77902425     1.13219299     0.08659506
 H                    -4.35585402     0.26419595    -1.40561474
 C                    -2.99018557    -0.01670730     0.21071322
 O                    -2.48195426     0.80367090     0.96802329
 N                    -2.35974511    -1.12105632    -0.18985022
 H                    -2.82661598    -1.73426477    -0.83641729
 C                    -0.97766359    -1.42706790     0.18909777
 H                    -0.87472476    -1.27919061     1.26718585
 C                    -0.66269091    -2.90445606    -0.10904556
 H                    -1.33825853    -3.54878759     0.45259514
 H                    -0.79379877    -3.09277024    -1.17423544
 C                     0.76770837    -3.25718506     0.27563635
 O                     1.41285347    -2.59055223     1.06835791
 N                     1.31783107    -4.31167408    -0.27698641
 H                     0.82394974    -4.84759386    -0.96422160
 H                     2.27112500    -4.49677438    -0.02086618
 C                     0.01779136    -0.47324131    -0.49853460
 O                     0.51391188    -0.75336609    -1.58769049
 N                     0.31433361     0.64391573     0.16060183
 H                    -0.21688597     0.84347836     0.99674626
 C                     1.27478238     1.65262556    -0.29256221
 H                     1.17491140     1.76056337    -1.37400070
 C                     0.90362235     2.99788759     0.35233415
 H                     1.00114533     2.93138792     1.43714430
 H                     1.59221834     3.76551590    -0.00898889
 S                    -0.79744477     3.47556742    -0.08877650
 H                    -1.44828807     2.47237388     0.52435948
 C                     2.75217401     1.27417049    -0.03352220
 O                     3.64095850     2.09818151    -0.20869059
 N                     3.05777856     0.05993476     0.41380147
 H                     2.33951749    -0.63578836     0.55408463
 H                     4.02581797    -0.15518941     0.57938917

 ==============================================================================
                                internuclear distances
 ------------------------------------------------------------------------------
       center one      |      center two      | atomic units |  angstroms
 ------------------------------------------------------------------------------
    2 C                |   1 H                |     2.05691  |     1.08847
    3 H                |   2 C                |     2.05922  |     1.08969
    4 H                |   2 C                |     2.05645  |     1.08823
    5 C                |   2 C                |     2.85318  |     1.50984
    6 O                |   5 C                |     2.31816  |     1.22672
    7 N                |   5 C                |     2.51943  |     1.33323
    8 H                |   7 N                |     1.90107  |     1.00600
    9 C                |   7 N                |     2.76920  |     1.46540
   10 H                |   9 C                |     2.06555  |     1.09304
   11 C                |   9 C                |     2.90967  |     1.53973
   12 H                |  11 C                |     2.05884  |     1.08949
   13 H                |  11 C                |     2.05909  |     1.08962
   14 C                |  11 C                |     2.87738  |     1.52264
   15 O                |  14 C                |     2.30595  |     1.22025
   16 N                |  14 C                |     2.47833  |     1.31148
   17 H                |  16 N                |     1.89296  |     1.00171
   18 H                |  16 N                |     1.89786  |     1.00431
   19 C                |   9 C                |     2.91138  |     1.54063
   20 O                |  19 C                |     2.32280  |     1.22917
   21 N                |  19 C                |     2.51443  |     1.33058
   22 H                |  21 N                |     1.90961  |     1.01052
   23 C                |  21 N                |     2.76786  |     1.46469
   24 H                |  23 C                |     2.06243  |     1.09139
   25 C                |  23 C                |     2.90513  |     1.53733
   26 H                |  25 C                |     2.06209  |     1.09121
   27 H                |  25 C                |     2.06489  |     1.09269
   28 S                |  25 C                |     3.44137  |     1.82109
   29 H                |  28 S                |     2.53951  |     1.34385
   30 C                |  23 C                |     2.92329  |     1.54694
   31 O                |  30 C                |     2.31414  |     1.22459
   32 N                |  30 C                |     2.51260  |     1.32961
   33 H                |  32 N                |     1.90816  |     1.00976
   34 H                |  32 N                |     1.89990  |     1.00538
 ------------------------------------------------------------------------------
                         number of included internuclear distances:         33
 ==============================================================================



 ==============================================================================
                                 internuclear angles
 ------------------------------------------------------------------------------
        center 1       |       center 2       |       center 3       |  degrees
 ------------------------------------------------------------------------------
    1 H                |   2 C                |   3 H                |   109.51
    1 H                |   2 C                |   4 H                |   110.06
    1 H                |   2 C                |   5 C                |   109.49
    3 H                |   2 C                |   4 H                |   109.39
    3 H                |   2 C                |   5 C                |   108.94
    4 H                |   2 C                |   5 C                |   109.42
    2 C                |   5 C                |   6 O                |   120.27
    2 C                |   5 C                |   7 N                |   116.80
    6 O                |   5 C                |   7 N                |   122.92
    5 C                |   7 N                |   8 H                |   118.59
    5 C                |   7 N                |   9 C                |   122.77
    8 H                |   7 N                |   9 C                |   118.46
    7 N                |   9 C                |  10 H                |   108.40
    7 N                |   9 C                |  11 C                |   110.07
    7 N                |   9 C                |  19 C                |   111.39
   10 H                |   9 C                |  11 C                |   107.55
   10 H                |   9 C                |  19 C                |   107.19
   11 C                |   9 C                |  19 C                |   112.05
    9 C                |  11 C                |  12 H                |   109.93
    9 C                |  11 C                |  13 H                |   109.30
    9 C                |  11 C                |  14 C                |   111.44
   12 H                |  11 C                |  13 H                |   109.09
   12 H                |  11 C                |  14 C                |   108.38
   13 H                |  11 C                |  14 C                |   108.66
   11 C                |  14 C                |  15 O                |   122.29
   11 C                |  14 C                |  16 N                |   118.29
   15 O                |  14 C                |  16 N                |   119.42
   14 C                |  16 N                |  17 H                |   120.83
   14 C                |  16 N                |  18 H                |   116.03
   17 H                |  16 N                |  18 H                |   122.98
    9 C                |  19 C                |  20 O                |   121.01
    9 C                |  19 C                |  21 N                |   116.28
   20 O                |  19 C                |  21 N                |   122.71
   19 C                |  21 N                |  22 H                |   117.29
   19 C                |  21 N                |  23 C                |   124.83
   22 H                |  21 N                |  23 C                |   117.69
   21 N                |  23 C                |  24 H                |   108.34
   21 N                |  23 C                |  25 C                |   108.33
   21 N                |  23 C                |  30 C                |   113.95
   24 H                |  23 C                |  25 C                |   107.88
   24 H                |  23 C                |  30 C                |   106.11
   25 C                |  23 C                |  30 C                |   111.99
   23 C                |  25 C                |  26 H                |   110.01
   23 C                |  25 C                |  27 H                |   108.90
   23 C                |  25 C                |  28 S                |   110.70
   26 H                |  25 C                |  27 H                |   108.37
   26 H                |  25 C                |  28 S                |   109.89
   27 H                |  25 C                |  28 S                |   108.92
   25 C                |  28 S                |  29 H                |    98.40
   23 C                |  30 C                |  31 O                |   120.30
   23 C                |  30 C                |  32 N                |   119.95
   31 O                |  30 C                |  32 N                |   119.72
   30 C                |  32 N                |  33 H                |   120.83
   30 C                |  32 N                |  34 H                |   118.17
   33 H                |  32 N                |  34 H                |   120.97
 ------------------------------------------------------------------------------
                            number of included internuclear angles:         55
 ==============================================================================



  library name resolved from: environment
  library file name is: </opt/rit/el9/20230413/app/linux-rhel9-x86_64_v3/gcc-11.2.1/nwchem-7.2.0-oxtctbuhfuzyfaoziquq6bki22grib3g/share/nwchem/libraries/>
  


 Summary of "ao basis" -> "" (cartesian)
 ------------------------------------------------------------------------------
       Tag                 Description            Shells   Functions and Types
 ---------------- ------------------------------  ------  ---------------------
 *                        aug-cc-pvdz                 on all atoms 


                      Basis "ao basis" -> "ao basis" (cartesian)
                      -----
  H (Hydrogen)
  ------------
            Exponent  Coefficients 
       -------------- ---------------------------------------------------------
  1 S  1.30100000E+01  0.019685
  1 S  1.96200000E+00  0.137977
  1 S  4.44600000E-01  0.478148

  2 S  1.22000000E-01  1.000000

  3 S  2.97400000E-02  1.000000

  4 P  7.27000000E-01  1.000000

  5 P  1.41000000E-01  1.000000

  C (Carbon)
  ----------
            Exponent  Coefficients 
       -------------- ---------------------------------------------------------
  1 S  6.66500000E+03  0.000692
  1 S  1.00000000E+03  0.005329
  1 S  2.28000000E+02  0.027077
  1 S  6.47100000E+01  0.101718
  1 S  2.10600000E+01  0.274740
  1 S  7.49500000E+00  0.448564
  1 S  2.79700000E+00  0.285074
  1 S  5.21500000E-01  0.015204

  2 S  6.66500000E+03 -0.000146
  2 S  1.00000000E+03 -0.001154
  2 S  2.28000000E+02 -0.005725
  2 S  6.47100000E+01 -0.023312
  2 S  2.10600000E+01 -0.063955
  2 S  7.49500000E+00 -0.149981
  2 S  2.79700000E+00 -0.127262
  2 S  5.21500000E-01  0.544529

  3 S  1.59600000E-01  1.000000

  4 S  4.69000000E-02  1.000000

  5 P  9.43900000E+00  0.038109
  5 P  2.00200000E+00  0.209480
  5 P  5.45600000E-01  0.508557

  6 P  1.51700000E-01  1.000000

  7 P  4.04100000E-02  1.000000

  8 D  5.50000000E-01  1.000000

  9 D  1.51000000E-01  1.000000

  O (Oxygen)
  ----------
            Exponent  Coefficients 
       -------------- ---------------------------------------------------------
  1 S  1.17200000E+04  0.000710
  1 S  1.75900000E+03  0.005470
  1 S  4.00800000E+02  0.027837
  1 S  1.13700000E+02  0.104800
  1 S  3.70300000E+01  0.283062
  1 S  1.32700000E+01  0.448719
  1 S  5.02500000E+00  0.270952
  1 S  1.01300000E+00  0.015458

  2 S  1.17200000E+04 -0.000160
  2 S  1.75900000E+03 -0.001263
  2 S  4.00800000E+02 -0.006267
  2 S  1.13700000E+02 -0.025716
  2 S  3.70300000E+01 -0.070924
  2 S  1.32700000E+01 -0.165411
  2 S  5.02500000E+00 -0.116955
  2 S  1.01300000E+00  0.557368

  3 S  3.02300000E-01  1.000000

  4 S  7.89600000E-02  1.000000

  5 P  1.77000000E+01  0.043018
  5 P  3.85400000E+00  0.228913
  5 P  1.04600000E+00  0.508728

  6 P  2.75300000E-01  1.000000

  7 P  6.85600000E-02  1.000000

  8 D  1.18500000E+00  1.000000

  9 D  3.32000000E-01  1.000000

  N (Nitrogen)
  ------------
            Exponent  Coefficients 
       -------------- ---------------------------------------------------------
  1 S  9.04600000E+03  0.000700
  1 S  1.35700000E+03  0.005389
  1 S  3.09300000E+02  0.027406
  1 S  8.77300000E+01  0.103207
  1 S  2.85600000E+01  0.278723
  1 S  1.02100000E+01  0.448540
  1 S  3.83800000E+00  0.278238
  1 S  7.46600000E-01  0.015440

  2 S  9.04600000E+03 -0.000153
  2 S  1.35700000E+03 -0.001208
  2 S  3.09300000E+02 -0.005992
  2 S  8.77300000E+01 -0.024544
  2 S  2.85600000E+01 -0.067459
  2 S  1.02100000E+01 -0.158078
  2 S  3.83800000E+00 -0.121831
  2 S  7.46600000E-01  0.549003

  3 S  2.24800000E-01  1.000000

  4 S  6.12400000E-02  1.000000

  5 P  1.35500000E+01  0.039919
  5 P  2.91700000E+00  0.217169
  5 P  7.97300000E-01  0.510319

  6 P  2.18500000E-01  1.000000

  7 P  5.61100000E-02  1.000000

  8 D  8.17000000E-01  1.000000

  9 D  2.30000000E-01  1.000000

  S (Sulphur)
  -----------
            Exponent  Coefficients 
       -------------- ---------------------------------------------------------
  1 S  1.10800000E+05  0.000248
  1 S  1.66100000E+04  0.001920
  1 S  3.78100000E+03  0.009962
  1 S  1.07100000E+03  0.040298
  1 S  3.49800000E+02  0.128604
  1 S  1.26300000E+02  0.303480
  1 S  4.92600000E+01  0.421432
  1 S  2.01600000E+01  0.230781
  1 S  5.72000000E+00  0.017897
  1 S  2.18200000E+00 -0.002975
  1 S  4.32700000E-01  0.000850

  2 S  1.10800000E+05 -0.000069
  2 S  1.66100000E+04 -0.000528
  2 S  3.78100000E+03 -0.002797
  2 S  1.07100000E+03 -0.011265
  2 S  3.49800000E+02 -0.038883
  2 S  1.26300000E+02 -0.099503
  2 S  4.92600000E+01 -0.199740
  2 S  2.01600000E+01 -0.123360
  2 S  5.72000000E+00  0.513194
  2 S  2.18200000E+00  0.607120
  2 S  4.32700000E-01  0.039675

  3 S  1.10800000E+05  0.000020
  3 S  1.66100000E+04  0.000153
  3 S  3.78100000E+03  0.000810
  3 S  1.07100000E+03  0.003290
  3 S  3.49800000E+02  0.011297
  3 S  1.26300000E+02  0.029639
  3 S  4.92600000E+01  0.059985
  3 S  2.01600000E+01  0.041325
  3 S  5.72000000E+00 -0.207474
  3 S  2.18200000E+00 -0.392889
  3 S  4.32700000E-01  0.632840

  4 S  1.57000000E-01  1.000000

  5 S  5.07000000E-02  1.000000

  6 P  3.99700000E+02  0.004475
  6 P  9.41900000E+01  0.034171
  6 P  2.97500000E+01  0.144250
  6 P  1.07700000E+01  0.353928
  6 P  4.11900000E+00  0.459085
  6 P  1.62500000E+00  0.206383
  6 P  4.72600000E-01  0.010214

  7 P  3.99700000E+02 -0.001163
  7 P  9.41900000E+01 -0.008657
  7 P  2.97500000E+01 -0.039089
  7 P  1.07700000E+01 -0.093463
  7 P  4.11900000E+00 -0.147994
  7 P  1.62500000E+00  0.030190
  7 P  4.72600000E-01  0.561573

  8 P  1.40700000E-01  1.000000

  9 P  3.99000000E-02  1.000000

 10 D  4.79000000E-01  1.000000

 11 D  1.52000000E-01  1.000000



 Summary of "ao basis" -> "ao basis" (cartesian)
 ------------------------------------------------------------------------------
       Tag                 Description            Shells   Functions and Types
 ---------------- ------------------------------  ------  ---------------------
 H                        aug-cc-pvdz                5        9   3s2p
 C                        aug-cc-pvdz                9       25   4s3p2d
 O                        aug-cc-pvdz                9       25   4s3p2d
 N                        aug-cc-pvdz                9       25   4s3p2d
 S                        aug-cc-pvdz               11       29   5s4p2d


                                 NWChem SCF Module
                                 -----------------



  ao basis        = "ao basis"
  functions       =   598
  atoms           =    34
  closed shells   =    73
  open shells     =     0
  charge          =   0.00
  wavefunction    = RHF 
  input vectors   = atomic
  output vectors  = ./ASN_CYS_4.movecs
  use symmetry    = F
  symmetry adapt  = F


 Summary of "ao basis" -> "ao basis" (cartesian)
 ------------------------------------------------------------------------------
       Tag                 Description            Shells   Functions and Types
 ---------------- ------------------------------  ------  ---------------------
 H                        aug-cc-pvdz                5        9   3s2p
 C                        aug-cc-pvdz                9       25   4s3p2d
 O                        aug-cc-pvdz                9       25   4s3p2d
 N                        aug-cc-pvdz                9       25   4s3p2d
 S                        aug-cc-pvdz               11       29   5s4p2d



 Forming initial guess at       0.8s


 !! The overlap matrix has   5 vectors deemed linearly dependent with
    eigenvalues:
 2.67D-06 5.02D-06 5.76D-06 8.61D-06 9.01D-06


      Superposition of Atomic Density Guess
      -------------------------------------

 Sum of atomic energies:       -1260.74949013

      Non-variational initial energy
      ------------------------------

 Total energy =   -1271.908503
 1-e energy   =   -4847.976453
 2-e energy   =    2005.578062
 HOMO         =      -0.291454
 LUMO         =       0.010998


 Starting SCF solution at     238.9s



 ----------------------------------------------
         Quadratically convergent ROHF

 Convergence threshold     :          1.000E-04
 Maximum no. of iterations :           30
 Final Fock-matrix accuracy:          1.000E-10
 ----------------------------------------------


              iter       energy          gnorm     gmax       time
             ----- ------------------- --------- --------- --------
                 1    -1264.6784085808  2.66D+00  1.36D-01    496.0
                 2    -1265.0560094143  8.68D-01  3.71D-02   1013.8
                 3    -1265.1231505445  7.21D-02  4.22D-03   1745.2
                 4    -1265.1239522306  4.63D-03  4.45D-04   2711.3
                 5    -1265.1239561350  1.04D-05  6.49D-07   4376.7


       Final RHF  results 
       ------------------ 

         Total SCF energy =  -1265.123956135021
      One-electron energy =  -4860.139366458038
      Two-electron energy =   2024.525522682668
 Nuclear repulsion energy =   1570.489887640349

        Time for solution =   4139.3s


             Final eigenvalues
             -----------------

              1      
    1  -91.9392
    2  -20.5544
    3  -20.5485
    4  -20.5369
    5  -20.5071
    6  -15.6315
    7  -15.6192
    8  -15.6012
    9  -15.5724
   10  -11.3849
   11  -11.3839
   12  -11.3671
   13  -11.3434
   14  -11.3216
   15  -11.2927
   16  -11.2872
   17  -11.2696
   18  -11.2631
   19   -8.9407
   20   -6.6231
   21   -6.6219
   22   -6.6198
   23   -1.4207
   24   -1.4177
   25   -1.3948
   26   -1.3698
   27   -1.2770
   28   -1.2541
   29   -1.2523
   30   -1.1967
   31   -1.0999
   32   -1.0682
   33   -1.0258
   34   -0.9730
   35   -0.9345
   36   -0.8547
   37   -0.8385
   38   -0.8227
   39   -0.8076
   40   -0.7817
   41   -0.7643
   42   -0.7418
   43   -0.7265
   44   -0.7142
   45   -0.7090
   46   -0.6846
   47   -0.6708
   48   -0.6515
   49   -0.6464
   50   -0.6367
   51   -0.6178
   52   -0.6077
   53   -0.6019
   54   -0.5888
   55   -0.5851
   56   -0.5741
   57   -0.5711
   58   -0.5588
   59   -0.5577
   60   -0.5465
   61   -0.5377
   62   -0.5099
   63   -0.5069
   64   -0.4635
   65   -0.4565
   66   -0.4521
   67   -0.4434
   68   -0.4400
   69   -0.4280
   70   -0.4119
   71   -0.3926
   72   -0.3821
   73   -0.3454
   74    0.0132
   75    0.0251
   76    0.0361
   77    0.0388
   78    0.0497
   79    0.0524
   80    0.0561
   81    0.0654
   82    0.0665
   83    0.0700

                       ROHF Final Molecular Orbital Analysis
                       -------------------------------------

 Vector   23  Occ=2.000000D+00  E=-1.420672D+00
              MO Center=  7.4D-02, -1.9D+00,  5.7D-01, r^2= 6.1D+00
   Bfn.  Coefficient  Atom+Function         Bfn.  Coefficient  Atom+Function  
  ----- ------------  ---------------      ----- ------------  ---------------
   241      0.299600  15 O  s               240      0.283061  15 O  s         
   215      0.203988  14 C  s                80      0.184804   6 O  s         
    79      0.181600   6 O  s         

 Vector   24  Occ=2.000000D+00  E=-1.417685D+00
              MO Center= -1.4D+00, -7.1D-01,  6.3D-01, r^2= 6.4D+00
   Bfn.  Coefficient  Atom+Function         Bfn.  Coefficient  Atom+Function  
  ----- ------------  ---------------      ----- ------------  ---------------
    80      0.294598   6 O  s                79      0.288053   6 O  s         
   241     -0.208583  15 O  s                54      0.201030   5 C  s         
   240     -0.197128  15 O  s                12      0.175307   2 C  s         

 Vector   25  Occ=2.000000D+00  E=-1.394844D+00
              MO Center=  2.8D-01, -4.8D-01, -9.3D-01, r^2= 1.9D+00
   Bfn.  Coefficient  Atom+Function         Bfn.  Coefficient  Atom+Function  
  ----- ------------  ---------------      ----- ------------  ---------------
   334      0.357402  20 O  s               333      0.335073  20 O  s         
   308      0.237852  19 C  s         

 Vector   26  Occ=2.000000D+00  E=-1.369770D+00
              MO Center=  3.2D+00,  1.6D+00, -1.2D-01, r^2= 1.2D+00
   Bfn.  Coefficient  Atom+Function         Bfn.  Coefficient  Atom+Function  
  ----- ------------  ---------------      ----- ------------  ---------------
   533      0.376601  31 O  s               532      0.349791  31 O  s         
   507      0.244094  30 C  s         

 Vector   27  Occ=2.000000D+00  E=-1.277020D+00
              MO Center= -2.2D+00, -8.1D-01, -1.5D-02, r^2= 1.8D+00
   Bfn.  Coefficient  Atom+Function         Bfn.  Coefficient  Atom+Function  
  ----- ------------  ---------------      ----- ------------  ---------------
   105      0.467361   7 N  s               104      0.342847   7 N  s         
    80     -0.216485   6 O  s                79     -0.184221   6 O  s         
    58     -0.167932   5 C  py              128      0.157422   8 H  s         

 Vector   28  Occ=2.000000D+00  E=-1.254063D+00
              MO Center=  7.2D-01, -8.8D-01, -1.0D-01, r^2= 6.2D+00
   Bfn.  Coefficient  Atom+Function         Bfn.  Coefficient  Atom+Function  
  ----- ------------  ---------------      ----- ------------  ---------------
   359      0.306378  21 N  s               358      0.278555  21 N  s         
   266     -0.250161  16 N  s               265     -0.204978  16 N  s         
   334     -0.183064  20 O  s               173      0.162062  11 C  s         

 Vector   29  Occ=2.000000D+00  E=-1.252344D+00
              MO Center=  9.7D-01, -2.5D+00, -6.7D-02, r^2= 6.0D+00
   Bfn.  Coefficient  Atom+Function         Bfn.  Coefficient  Atom+Function  
  ----- ------------  ---------------      ----- ------------  ---------------
   266      0.338168  16 N  s               265      0.304512  16 N  s         
   359      0.203503  21 N  s               358      0.190350  21 N  s         
   241     -0.187188  15 O  s               240     -0.159168  15 O  s         

 Vector   30  Occ=2.000000D+00  E=-1.196662D+00
              MO Center=  2.9D+00,  4.3D-01,  2.7D-01, r^2= 1.6D+00
   Bfn.  Coefficient  Atom+Function         Bfn.  Coefficient  Atom+Function  
  ----- ------------  ---------------      ----- ------------  ---------------
   558      0.398921  32 N  s               557      0.369798  32 N  s         
   393     -0.253271  23 C  s               533     -0.202522  31 O  s         
   511     -0.198586  30 C  py              532     -0.172037  31 O  s         
   581      0.164178  33 H  s               590      0.159835  34 H  s         

 Vector   31  Occ=2.000000D+00  E=-1.099873D+00
              MO Center= -1.0D+00, -1.4D+00, -1.7D-02, r^2= 5.3D+00
   Bfn.  Coefficient  Atom+Function         Bfn.  Coefficient  Atom+Function  
  ----- ------------  ---------------      ----- ------------  ---------------
   172      0.239132  11 C  s               138      0.219788   9 C  s         
   145     -0.165337   9 C  py              173      0.161252  11 C  s         

 Vector   32  Occ=2.000000D+00  E=-1.068185D+00
              MO Center=  4.7D-01,  1.7D+00,  6.2D-02, r^2= 5.5D+00
   Bfn.  Coefficient  Atom+Function         Bfn.  Coefficient  Atom+Function  
  ----- ------------  ---------------      ----- ------------  ---------------
   426      0.251831  25 C  s               470      0.186753  28 S  s         
   392      0.185247  23 C  s               432     -0.184404  25 C  px        
   399      0.160095  23 C  py              393      0.152772  23 C  s         

 Vector   33  Occ=2.000000D+00  E=-1.025766D+00
              MO Center= -3.3D+00, -5.2D-01, -1.8D-01, r^2= 5.5D+00
   Bfn.  Coefficient  Atom+Function         Bfn.  Coefficient  Atom+Function  
  ----- ------------  ---------------      ----- ------------  ---------------
    11      0.316623   2 C  s               173      0.210830  11 C  s         
    55      0.182740   5 C  s                57     -0.156251   5 C  px        
   172      0.154876  11 C  s         

 Vector   34  Occ=2.000000D+00  E=-9.730244D-01
              MO Center= -8.0D-02,  1.2D+00, -3.0D-02, r^2= 7.9D+00
   Bfn.  Coefficient  Atom+Function         Bfn.  Coefficient  Atom+Function  
  ----- ------------  ---------------      ----- ------------  ---------------
   470      0.267702  28 S  s               139      0.254808   9 C  s         
   309     -0.191859  19 C  s               392     -0.182305  23 C  s         
   144      0.165176   9 C  px              145      0.151310   9 C  py        

 Vector   35  Occ=2.000000D+00  E=-9.345309D-01
              MO Center= -4.5D-01, -5.3D-01, -3.1D-02, r^2= 9.3D+00
   Bfn.  Coefficient  Atom+Function         Bfn.  Coefficient  Atom+Function  
  ----- ------------  ---------------      ----- ------------  ---------------
   173     -0.211814  11 C  s               138      0.206507   9 C  s         
   398      0.168341  23 C  px              470     -0.162608  28 S  s         
   178     -0.161392  11 C  px        

 Vector   36  Occ=2.000000D+00  E=-8.547413D-01
              MO Center= -9.1D-01, -1.6D-01,  1.5D-02, r^2= 9.3D+00
   Bfn.  Coefficient  Atom+Function         Bfn.  Coefficient  Atom+Function  
  ----- ------------  ---------------      ----- ------------  ---------------
   139      0.401834   9 C  s               108      0.218362   7 N  py        
   471     -0.180079  28 S  s                12      0.169209   2 C  s         
   128     -0.169154   8 H  s               105     -0.164171   7 N  s         
   309     -0.160174  19 C  s               399      0.160383  23 C  py        

 Vector   37  Occ=2.000000D+00  E=-8.385171D-01
              MO Center=  7.3D-01,  1.4D+00,  1.4D-01, r^2= 8.1D+00
   Bfn.  Coefficient  Atom+Function         Bfn.  Coefficient  Atom+Function  
  ----- ------------  ---------------      ----- ------------  ---------------
   393      0.260539  23 C  s               471      0.247886  28 S  s         
   470      0.226599  28 S  s               426     -0.179065  25 C  s         
   398      0.167320  23 C  px              399     -0.155198  23 C  py        
   507      0.155093  30 C  s         

 Vector   38  Occ=2.000000D+00  E=-8.226765D-01
              MO Center= -4.4D-02, -2.9D+00, -9.2D-02, r^2= 7.7D+00
   Bfn.  Coefficient  Atom+Function         Bfn.  Coefficient  Atom+Function  
  ----- ------------  ---------------      ----- ------------  ---------------
   269      0.265240  16 N  py              289     -0.216337  17 H  s         
   215      0.185219  14 C  s               216      0.176029  14 C  s         
   270      0.170057  16 N  pz              108     -0.162300   7 N  py        
   105      0.152459   7 N  s         

 Vector   39  Occ=2.000000D+00  E=-8.076010D-01
              MO Center= -3.0D-01, -1.9D-01, -5.0D-02, r^2= 5.7D+00
   Bfn.  Coefficient  Atom+Function         Bfn.  Coefficient  Atom+Function  
  ----- ------------  ---------------      ----- ------------  ---------------
   393     -0.245515  23 C  s               362      0.231838  21 N  py        
    55      0.197463   5 C  s               359      0.195034  21 N  s         
   382      0.192891  22 H  s               128     -0.189543   8 H  s         
   363      0.182466  21 N  pz              308     -0.178724  19 C  s         
   315     -0.171540  19 C  py              334      0.168060  20 O  s         

 Vector   40  Occ=2.000000D+00  E=-7.816826D-01
              MO Center=  1.9D+00,  7.0D-01,  1.3D-01, r^2= 4.6D+00
   Bfn.  Coefficient  Atom+Function         Bfn.  Coefficient  Atom+Function  
  ----- ------------  ---------------      ----- ------------  ---------------
   561     -0.271145  32 N  py              398     -0.267126  23 C  px        
   309      0.248839  19 C  s               507     -0.197295  30 C  s         
   363     -0.181467  21 N  pz              382     -0.176030  22 H  s         
   514      0.172620  30 C  py              533      0.167962  31 O  s         
   513     -0.166343  30 C  px              590      0.160522  34 H  s         

 Vector   41  Occ=2.000000D+00  E=-7.642968D-01
              MO Center=  8.2D-01, -3.5D+00, -1.7D-01, r^2= 5.5D+00
   Bfn.  Coefficient  Atom+Function         Bfn.  Coefficient  Atom+Function  
  ----- ------------  ---------------      ----- ------------  ---------------
   268      0.316560  16 N  px              298      0.282962  18 H  s         
   289     -0.276138  17 H  s               270      0.208216  16 N  pz        
   139     -0.195504   9 C  s               299      0.180515  18 H  s         
   309      0.161607  19 C  s               173      0.155091  11 C  s         
   290     -0.153632  17 H  s         

 Vector   42  Occ=2.000000D+00  E=-7.418414D-01
              MO Center= -6.2D-01, -8.4D-01, -1.3D-01, r^2= 6.8D+00
   Bfn.  Coefficient  Atom+Function         Bfn.  Coefficient  Atom+Function  
  ----- ------------  ---------------      ----- ------------  ---------------
   144      0.275683   9 C  px              309     -0.254864  19 C  s         
   312     -0.210802  19 C  py              141      0.208148   9 C  px        
   163     -0.202517  10 H  s               139      0.199482   9 C  s         
    55     -0.177620   5 C  s               109     -0.162102   7 N  pz        

 Vector   43  Occ=2.000000D+00  E=-7.265263D-01
              MO Center=  2.1D+00,  2.0D-01,  1.9D-01, r^2= 4.7D+00
   Bfn.  Coefficient  Atom+Function         Bfn.  Coefficient  Atom+Function  
  ----- ------------  ---------------      ----- ------------  ---------------
   560      0.297517  32 N  px              581     -0.285746  33 H  s         
   509     -0.226371  30 C  s               582     -0.209379  33 H  s         
   398     -0.208202  23 C  px              590      0.196223  34 H  s         
   561      0.184770  32 N  py              508      0.166467  30 C  s         
   510      0.164155  30 C  px              217      0.158312  14 C  s         

 Vector   44  Occ=2.000000D+00  E=-7.142363D-01
              MO Center= -5.4D-01, -2.0D+00,  1.5D-01, r^2= 4.9D+00
   Bfn.  Coefficient  Atom+Function         Bfn.  Coefficient  Atom+Function  
  ----- ------------  ---------------      ----- ------------  ---------------
   139      0.304686   9 C  s               309     -0.217494  19 C  s         
   144      0.205404   9 C  px              205     -0.198863  13 H  s         
   143      0.189223   9 C  pz              177      0.189876  11 C  pz        
   243     -0.185183  15 O  px              173     -0.179958  11 C  s         
   107     -0.170570   7 N  px              162      0.168313  10 H  s         

 Vector   45  Occ=2.000000D+00  E=-7.090289D-01
              MO Center= -2.0D+00,  3.3D-02,  2.5D-01, r^2= 7.8D+00
   Bfn.  Coefficient  Atom+Function         Bfn.  Coefficient  Atom+Function  
  ----- ------------  ---------------      ----- ------------  ---------------
    82      0.255912   6 O  px               80      0.202952   6 O  s         
    58     -0.191294   5 C  py               17     -0.174859   2 C  px        
    85      0.170274   6 O  px               14     -0.154326   2 C  px        

 Vector   46  Occ=2.000000D+00  E=-6.846294D-01
              MO Center=  6.0D-01, -4.0D-01,  3.3D-02, r^2= 9.2D+00
   Bfn.  Coefficient  Atom+Function         Bfn.  Coefficient  Atom+Function  
  ----- ------------  ---------------      ----- ------------  ---------------
   398     -0.166417  23 C  px              219      0.155064  14 C  py        
   361      0.151253  21 N  px        

 Vector   47  Occ=2.000000D+00  E=-6.708438D-01
              MO Center= -2.1D-01, -7.6D-01,  2.4D-01, r^2= 8.8D+00
   Bfn.  Coefficient  Atom+Function         Bfn.  Coefficient  Atom+Function  
  ----- ------------  ---------------      ----- ------------  ---------------
   243     -0.178160  15 O  px               58      0.163395   5 C  py        
   241     -0.160831  15 O  s                84     -0.159114   6 O  pz        
   219      0.156842  14 C  py              107      0.155941   7 N  px        

 Vector   48  Occ=2.000000D+00  E=-6.514689D-01
              MO Center= -4.8D-01, -1.7D+00, -1.4D-01, r^2= 8.3D+00
   Bfn.  Coefficient  Atom+Function         Bfn.  Coefficient  Atom+Function  
  ----- ------------  ---------------      ----- ------------  ---------------
   177      0.200230  11 C  pz              196      0.190843  12 H  s         
   217     -0.186645  14 C  s         

 Vector   49  Occ=2.000000D+00  E=-6.463567D-01
              MO Center=  5.0D-01,  6.7D-01, -1.9D-01, r^2= 1.1D+01
   Bfn.  Coefficient  Atom+Function         Bfn.  Coefficient  Atom+Function  
  ----- ------------  ---------------      ----- ------------  ---------------
   139      0.289891   9 C  s               511     -0.204480  30 C  py        
   309     -0.191466  19 C  s               535      0.178293  31 O  px        
   398     -0.169489  23 C  px              590     -0.169328  34 H  s         
   338     -0.167902  20 O  pz              560     -0.168732  32 N  px        

 Vector   50  Occ=2.000000D+00  E=-6.366936D-01
              MO Center= -7.5D-01,  1.4D-01, -6.1D-02, r^2= 1.1D+01
   Bfn.  Coefficient  Atom+Function         Bfn.  Coefficient  Atom+Function  
  ----- ------------  ---------------      ----- ------------  ---------------
   139      0.202174   9 C  s                16     -0.160168   2 C  pz        

 Vector   51  Occ=2.000000D+00  E=-6.178313D-01
              MO Center= -9.6D-01, -1.1D+00,  3.3D-01, r^2= 9.7D+00
   Bfn.  Coefficient  Atom+Function         Bfn.  Coefficient  Atom+Function  
  ----- ------------  ---------------      ----- ------------  ---------------
    83     -0.206842   6 O  py              244      0.204294  15 O  py        
    57      0.191450   5 C  px              245      0.190222  15 O  pz        
   218     -0.187149  14 C  px              139      0.180155   9 C  s         

 Vector   52  Occ=2.000000D+00  E=-6.076956D-01
              MO Center= -9.6D-01, -7.8D-01,  9.7D-03, r^2= 1.1D+01
   Bfn.  Coefficient  Atom+Function         Bfn.  Coefficient  Atom+Function  
  ----- ------------  ---------------      ----- ------------  ---------------
   218     -0.202583  14 C  px               16      0.199133   2 C  pz        
    44     -0.179945   4 H  s               175      0.156401  11 C  px        
   245      0.155188  15 O  pz              338     -0.152793  20 O  pz        

 Vector   53  Occ=2.000000D+00  E=-6.018507D-01
              MO Center=  2.1D-01, -4.1D-01, -2.5D-01, r^2= 1.0D+01
   Bfn.  Coefficient  Atom+Function         Bfn.  Coefficient  Atom+Function  
  ----- ------------  ---------------      ----- ------------  ---------------
   338     -0.211521  20 O  pz              313      0.205720  19 C  pz        
   334      0.168805  20 O  s         

 Vector   54  Occ=2.000000D+00  E=-5.888276D-01
              MO Center= -3.2D-01,  1.1D+00, -1.7D-02, r^2= 1.2D+01
   Bfn.  Coefficient  Atom+Function         Bfn.  Coefficient  Atom+Function  
  ----- ------------  ---------------      ----- ------------  ---------------
    15      0.207206   2 C  py              460      0.201981  27 H  s         
    35      0.181545   3 H  s                36      0.176064   3 H  s         
   427     -0.162978  25 C  s         

 Vector   55  Occ=2.000000D+00  E=-5.850647D-01
              MO Center= -8.9D-03,  5.5D-01,  1.0D-01, r^2= 1.3D+01
   Bfn.  Coefficient  Atom+Function         Bfn.  Coefficient  Atom+Function  
  ----- ------------  ---------------      ----- ------------  ---------------
   430      0.211670  25 C  py              427     -0.171980  25 C  s         
   428     -0.171140  25 C  s               460      0.163557  27 H  s         
   433      0.162612  25 C  py               15     -0.160673   2 C  py        
   396     -0.159708  23 C  py              309     -0.154918  19 C  s         
    35     -0.151642   3 H  s         

 Vector   56  Occ=2.000000D+00  E=-5.740880D-01
              MO Center= -1.7D-01,  5.7D-01, -3.8D-02, r^2= 1.4D+01
   Bfn.  Coefficient  Atom+Function         Bfn.  Coefficient  Atom+Function  
  ----- ------------  ---------------      ----- ------------  ---------------
    35      0.222166   3 H  s               536     -0.209448  31 O  py        
    15      0.208290   2 C  py              398     -0.178075  23 C  px        
    36      0.165145   3 H  s               510      0.155598  30 C  px        

 Vector   57  Occ=2.000000D+00  E=-5.710787D-01
              MO Center=  1.8D+00,  1.5D+00,  6.4D-02, r^2= 5.6D+00
   Bfn.  Coefficient  Atom+Function         Bfn.  Coefficient  Atom+Function  
  ----- ------------  ---------------      ----- ------------  ---------------
   509      0.268486  30 C  s               537      0.232459  31 O  pz        
   431     -0.212843  25 C  pz              512      0.197503  30 C  pz        
   450     -0.188370  26 H  s               562      0.181818  32 N  pz        
   428     -0.179102  25 C  s               540      0.166479  31 O  pz        

 Vector   58  Occ=2.000000D+00  E=-5.587775D-01
              MO Center= -1.8D+00, -5.4D-01, -7.5D-02, r^2= 9.1D+00
   Bfn.  Coefficient  Atom+Function         Bfn.  Coefficient  Atom+Function  
  ----- ------------  ---------------      ----- ------------  ---------------
   142     -0.188737   9 C  py               16      0.186979   2 C  pz        
    44     -0.183753   4 H  s               176      0.177493  11 C  py        
   177      0.151368  11 C  pz              205     -0.150096  13 H  s         

 Vector   59  Occ=2.000000D+00  E=-5.577263D-01
              MO Center= -3.3D-01, -2.1D+00,  8.4D-02, r^2= 7.1D+00
   Bfn.  Coefficient  Atom+Function         Bfn.  Coefficient  Atom+Function  
  ----- ------------  ---------------      ----- ------------  ---------------
   196      0.250840  12 H  s               176     -0.221466  11 C  py        
   197      0.210362  12 H  s               206     -0.185232  13 H  s         
   145      0.181127   9 C  py              142      0.173660   9 C  py        
   245     -0.171908  15 O  pz              177      0.160440  11 C  pz        
   428     -0.156927  25 C  s         

 Vector   60  Occ=2.000000D+00  E=-5.464585D-01
              MO Center= -4.1D-02,  1.7D-01, -3.9D-01, r^2= 7.0D+00
   Bfn.  Coefficient  Atom+Function         Bfn.  Coefficient  Atom+Function  
  ----- ------------  ---------------      ----- ------------  ---------------
   336      0.250483  20 O  px              311      0.211369  19 C  px        
   339      0.197909  20 O  px              396      0.168412  23 C  py        

 Vector   61  Occ=2.000000D+00  E=-5.377341D-01
              MO Center= -1.3D+00, -1.0D+00,  9.1D-02, r^2= 6.4D+00
   Bfn.  Coefficient  Atom+Function         Bfn.  Coefficient  Atom+Function  
  ----- ------------  ---------------      ----- ------------  ---------------
   217     -0.290133  14 C  s               179      0.286835  11 C  py        
   162     -0.245836  10 H  s               139     -0.233854   9 C  s         
   143     -0.232856   9 C  pz               56      0.216561   5 C  s         
   205     -0.206870  13 H  s               177      0.201952  11 C  pz        
   197      0.200855  12 H  s                84      0.184939   6 O  pz        

 Vector   62  Occ=2.000000D+00  E=-5.098995D-01
              MO Center=  2.2D-01,  2.2D+00, -3.5D-02, r^2= 6.2D+00
   Bfn.  Coefficient  Atom+Function         Bfn.  Coefficient  Atom+Function  
  ----- ------------  ---------------      ----- ------------  ---------------
   428      0.318082  25 C  s               476     -0.251762  28 S  px        
   429      0.242409  25 C  px              497      0.215011  29 H  s         
   459      0.204784  27 H  s               479     -0.192877  28 S  px        
   509     -0.189429  30 C  s               337     -0.153678  20 O  py        

 Vector   63  Occ=2.000000D+00  E=-5.069336D-01
              MO Center=  1.5D+00,  1.7D+00, -1.1D-01, r^2= 4.8D+00
   Bfn.  Coefficient  Atom+Function         Bfn.  Coefficient  Atom+Function  
  ----- ------------  ---------------      ----- ------------  ---------------
   427      0.278256  25 C  s               397      0.262126  23 C  pz        
   416     -0.243302  24 H  s               433     -0.243914  25 C  py        
   537     -0.207529  31 O  pz              562     -0.203088  32 N  pz        
   451     -0.184854  26 H  s               398      0.175490  23 C  px        
   431     -0.168578  25 C  pz              526      0.157920  30 C  dxy       

 Vector   64  Occ=2.000000D+00  E=-4.635443D-01
              MO Center= -6.6D-01,  3.8D-01, -3.1D-01, r^2= 7.3D+00
   Bfn.  Coefficient  Atom+Function         Bfn.  Coefficient  Atom+Function  
  ----- ------------  ---------------      ----- ------------  ---------------
   337      0.319857  20 O  py              340      0.257197  20 O  py        
   109     -0.215810   7 N  pz               84      0.209850   6 O  pz        
   471      0.204395  28 S  s               112     -0.190145   7 N  pz        
    83     -0.175547   6 O  py               87      0.163083   6 O  pz        
   336      0.153390  20 O  px        

 Vector   65  Occ=2.000000D+00  E=-4.565164D-01
              MO Center= -8.0D-01, -1.1D+00,  6.9D-01, r^2= 8.3D+00
   Bfn.  Coefficient  Atom+Function         Bfn.  Coefficient  Atom+Function  
  ----- ------------  ---------------      ----- ------------  ---------------
    82      0.336749   6 O  px              243     -0.308902  15 O  px        
   173      0.271126  11 C  s                85      0.267375   6 O  px        
   309      0.255793  19 C  s               244      0.254111  15 O  py        
   246     -0.243317  15 O  px              144     -0.238995   9 C  px        
   139     -0.227459   9 C  s               247      0.212491  15 O  py        

 Vector   66  Occ=2.000000D+00  E=-4.520511D-01
              MO Center= -5.0D-01, -8.0D-01,  4.6D-01, r^2= 9.4D+00
   Bfn.  Coefficient  Atom+Function         Bfn.  Coefficient  Atom+Function  
  ----- ------------  ---------------      ----- ------------  ---------------
   243      0.289724  15 O  px               82      0.275998   6 O  px        
   246      0.227506  15 O  px               85      0.219419   6 O  px        
   244     -0.211035  15 O  py               83     -0.185618   6 O  py        
   247     -0.177701  15 O  py              173     -0.166264  11 C  s         

 Vector   67  Occ=2.000000D+00  E=-4.434157D-01
              MO Center=  1.3D-01,  1.6D+00, -9.9D-02, r^2= 9.5D+00
   Bfn.  Coefficient  Atom+Function         Bfn.  Coefficient  Atom+Function  
  ----- ------------  ---------------      ----- ------------  ---------------
   471      0.283011  28 S  s               477      0.222863  28 S  py        
   427     -0.220823  25 C  s               536     -0.196035  31 O  py        
    82      0.181977   6 O  px              535      0.172925  31 O  px        
   336     -0.171962  20 O  px              480      0.172250  28 S  py        
   139     -0.151726   9 C  s         

 Vector   68  Occ=2.000000D+00  E=-4.400389D-01
              MO Center=  1.3D+00, -3.5D+00,  3.0D-01, r^2= 2.6D+00
   Bfn.  Coefficient  Atom+Function         Bfn.  Coefficient  Atom+Function  
  ----- ------------  ---------------      ----- ------------  ---------------
   270     -0.320465  16 N  pz              245      0.308519  15 O  pz        
   269      0.265432  16 N  py              272      0.265352  16 N  py        
   273     -0.255253  16 N  pz              248      0.242724  15 O  pz        
   244     -0.206755  15 O  py              247     -0.173689  15 O  py        
   243     -0.152621  15 O  px        

 Vector   69  Occ=2.000000D+00  E=-4.279799D-01
              MO Center=  8.2D-01,  1.6D+00, -2.7D-01, r^2= 7.1D+00
   Bfn.  Coefficient  Atom+Function         Bfn.  Coefficient  Atom+Function  
  ----- ------------  ---------------      ----- ------------  ---------------
   417      0.237203  24 H  s               471      0.225504  28 S  s         
   536      0.215940  31 O  py              535     -0.190536  31 O  px        
   477      0.182620  28 S  py              361     -0.172467  21 N  px        
   539      0.168534  31 O  py              364     -0.165382  21 N  px        
   393     -0.165726  23 C  s               336      0.163090  20 O  px        

 Vector   70  Occ=2.000000D+00  E=-4.118703D-01
              MO Center= -9.0D-01, -5.7D-01, -3.7D-01, r^2= 4.9D+00
   Bfn.  Coefficient  Atom+Function         Bfn.  Coefficient  Atom+Function  
  ----- ------------  ---------------      ----- ------------  ---------------
   337      0.279638  20 O  py              109      0.252608   7 N  pz        
   340      0.235769  20 O  py              112      0.225442   7 N  pz        
   336      0.215394  20 O  px               84     -0.174719   6 O  pz        
   111     -0.167837   7 N  py              108     -0.164577   7 N  py        
   339      0.162900  20 O  px        

 Vector   71  Occ=2.000000D+00  E=-3.926428D-01
              MO Center=  2.9D+00,  1.1D+00,  7.2D-02, r^2= 3.5D+00
   Bfn.  Coefficient  Atom+Function         Bfn.  Coefficient  Atom+Function  
  ----- ------------  ---------------      ----- ------------  ---------------
   537      0.389446  31 O  pz              562     -0.342214  32 N  pz        
   540      0.303257  31 O  pz              565     -0.300271  32 N  pz        
   561     -0.186479  32 N  py        

 Vector   72  Occ=2.000000D+00  E=-3.821005D-01
              MO Center=  1.9D+00,  9.4D-01, -2.1D-01, r^2= 4.8D+00
   Bfn.  Coefficient  Atom+Function         Bfn.  Coefficient  Atom+Function  
  ----- ------------  ---------------      ----- ------------  ---------------
   535     -0.252003  31 O  px              361      0.239822  21 N  px        
   536      0.240314  31 O  py              562     -0.229002  32 N  pz        
   364      0.223021  21 N  px              539      0.201465  31 O  py        
   538     -0.188535  31 O  px              565     -0.183360  32 N  pz        
   336     -0.173524  20 O  px              513      0.170485  30 C  px        

 Vector   73  Occ=2.000000D+00  E=-3.453590D-01
              MO Center= -6.6D-01,  3.4D+00, -4.4D-02, r^2= 2.1D+00
   Bfn.  Coefficient  Atom+Function         Bfn.  Coefficient  Atom+Function  
  ----- ------------  ---------------      ----- ------------  ---------------
   478      0.434993  28 S  pz              481      0.427014  28 S  pz        
   477      0.297892  28 S  py              480      0.270148  28 S  py        
   368      0.159843  21 N  py              427     -0.156661  25 C  s         

 Vector   74  Occ=0.000000D+00  E= 1.323098D-02
              MO Center= -2.2D+00, -4.5D+00, -8.6D-01, r^2= 1.9D+01
   Bfn.  Coefficient  Atom+Function         Bfn.  Coefficient  Atom+Function  
  ----- ------------  ---------------      ----- ------------  ---------------
   217      3.329296  14 C  s               173      2.544528  11 C  s         
   267     -2.370262  16 N  s               198     -2.092590  12 H  s         
   197     -1.760349  12 H  s               106     -1.743142   7 N  s         
   310      1.665808  19 C  s               318     -1.530372  19 C  py        
   225     -1.441384  14 C  py              291     -1.322757  17 H  s         

 Vector   75  Occ=0.000000D+00  E= 2.508786D-02
              MO Center= -1.6D+00, -3.8D+00, -8.9D-01, r^2= 3.5D+01
   Bfn.  Coefficient  Atom+Function         Bfn.  Coefficient  Atom+Function  
  ----- ------------  ---------------      ----- ------------  ---------------
   147      3.502727   9 C  px              148     -2.760932   9 C  py        
    63      2.229833   5 C  px              224      2.132960  14 C  px        
   225     -2.056125  14 C  py                3      1.945550   1 H  s         
   291     -1.946525  17 H  s               267     -1.926561  16 N  s         
    12     -1.887864   2 C  s               300     -1.390378  18 H  s         

 Vector   76  Occ=0.000000D+00  E= 3.607717D-02
              MO Center= -2.5D+00, -2.8D+00, -3.4D-01, r^2= 2.4D+01
   Bfn.  Coefficient  Atom+Function         Bfn.  Coefficient  Atom+Function  
  ----- ------------  ---------------      ----- ------------  ---------------
   198      4.302361  12 H  s               207     -3.105101  13 H  s         
    46     -2.310496   4 H  s                63     -2.304053   5 C  px        
    56     -2.039283   5 C  s               183     -2.033178  11 C  pz        
   164      1.627880  10 H  s               217      1.521473  14 C  s         
   147     -1.288361   9 C  px              317     -1.287881  19 C  px        

 Vector   77  Occ=0.000000D+00  E= 3.876892D-02
              MO Center= -1.3D+00, -2.1D+00, -1.3D-01, r^2= 4.5D+01
   Bfn.  Coefficient  Atom+Function         Bfn.  Coefficient  Atom+Function  
  ----- ------------  ---------------      ----- ------------  ---------------
    63      3.059565   5 C  px              300      2.327740  18 H  s         
   130     -2.085970   8 H  s               173      2.040883  11 C  s         
   174     -2.025157  11 C  s               148     -1.978352   9 C  py        
   106     -1.954875   7 N  s               198     -1.948302  12 H  s         
    37      1.935065   3 H  s               267      1.913126  16 N  s         

 Vector   78  Occ=0.000000D+00  E= 4.967376D-02
              MO Center= -1.9D-01, -1.3D+00,  2.0D-01, r^2= 4.4D+01
   Bfn.  Coefficient  Atom+Function         Bfn.  Coefficient  Atom+Function  
  ----- ------------  ---------------      ----- ------------  ---------------
    63      2.647016   5 C  px              509      2.618872  30 C  s         
   402      2.484364  23 C  py              291      2.417806  17 H  s         
   147      2.403252   9 C  px               37      2.353025   3 H  s         
   164     -2.229107  10 H  s               106     -2.169722   7 N  s         
    56      2.157639   5 C  s               394      2.051801  23 C  s         

 Vector   79  Occ=0.000000D+00  E= 5.239049D-02
              MO Center= -1.4D+00, -3.6D-01,  1.0D+00, r^2= 3.9D+01
   Bfn.  Coefficient  Atom+Function         Bfn.  Coefficient  Atom+Function  
  ----- ------------  ---------------      ----- ------------  ---------------
   164      4.158286  10 H  s                 3     -2.915185   1 H  s         
   402     -2.818578  23 C  py              509     -2.792855  30 C  s         
   428      2.747042  25 C  s               149     -2.720543   9 C  pz        
   452      2.640334  26 H  s               384     -2.504668  22 H  s         
    37      2.250525   3 H  s               300     -2.018364  18 H  s         

 Vector   80  Occ=0.000000D+00  E= 5.608713D-02
              MO Center= -2.0D+00, -1.2D+00, -6.9D-02, r^2= 3.9D+01
   Bfn.  Coefficient  Atom+Function         Bfn.  Coefficient  Atom+Function  
  ----- ------------  ---------------      ----- ------------  ---------------
   198      4.227220  12 H  s                46      4.048328   4 H  s         
     3     -3.185669   1 H  s               207     -2.780997  13 H  s         
   402      2.743484  23 C  py              509      2.732442  30 C  s         
   452     -2.539471  26 H  s                56      2.479837   5 C  s         
   217     -2.391671  14 C  s               183     -2.288331  11 C  pz        

 Vector   81  Occ=0.000000D+00  E= 6.537979D-02
              MO Center=  4.7D-01, -7.3D-01,  9.7D-01, r^2= 4.2D+01
   Bfn.  Coefficient  Atom+Function         Bfn.  Coefficient  Atom+Function  
  ----- ------------  ---------------      ----- ------------  ---------------
   164      5.204068  10 H  s                56     -4.032448   5 C  s         
   198     -3.205639  12 H  s                37     -3.024324   3 H  s         
   147     -3.039326   9 C  px              592     -2.661766  34 H  s         
   360      2.543030  21 N  s               149     -2.468660   9 C  pz        
    63     -2.414556   5 C  px               64      2.120243   5 C  py        

 Vector   82  Occ=0.000000D+00  E= 6.649237D-02
              MO Center=  1.8D-01,  2.4D+00, -1.2D-01, r^2= 4.0D+01
   Bfn.  Coefficient  Atom+Function         Bfn.  Coefficient  Atom+Function  
  ----- ------------  ---------------      ----- ------------  ---------------
   318      4.417723  19 C  py              207      4.081435  13 H  s         
   402      3.502957  23 C  py              461     -3.425233  27 H  s         
    37      2.809122   3 H  s               428     -2.725011  25 C  s         
   317      2.651629  19 C  px              113      2.231004   7 N  px        
   472      1.963727  28 S  s                56      1.886142   5 C  s         

 Vector   83  Occ=0.000000D+00  E= 7.004231D-02
              MO Center=  1.7D-01,  1.1D+00, -8.2D-01, r^2= 3.6D+01
   Bfn.  Coefficient  Atom+Function         Bfn.  Coefficient  Atom+Function  
  ----- ------------  ---------------      ----- ------------  ---------------
   207      4.233799  13 H  s               418      4.024640  24 H  s         
   164      3.839216  10 H  s               217      3.742757  14 C  s         
   148      3.600435   9 C  py               56     -3.414249   5 C  s         
   452     -3.297119  26 H  s               149     -2.762795   9 C  pz        
   183      2.571102  11 C  pz              140     -2.491116   9 C  s         

 Vector   84  Occ=0.000000D+00  E= 7.147039D-02
              MO Center= -7.4D-01, -4.8D-01, -6.9D-02, r^2= 4.5D+01
   Bfn.  Coefficient  Atom+Function         Bfn.  Coefficient  Atom+Function  
  ----- ------------  ---------------      ----- ------------  ---------------
    56      3.656134   5 C  s               147      3.007151   9 C  px        
    37      2.964135   3 H  s               130      2.966112   8 H  s         
   318      2.841863  19 C  py              300      2.664593  18 H  s         
   113      2.639243   7 N  px               46     -2.510092   4 H  s         
   418     -2.340126  24 H  s                 3     -2.127294   1 H  s         

 Vector   85  Occ=0.000000D+00  E= 8.410733D-02
              MO Center= -5.9D-01, -9.5D-01, -5.1D-02, r^2= 4.2D+01
   Bfn.  Coefficient  Atom+Function         Bfn.  Coefficient  Atom+Function  
  ----- ------------  ---------------      ----- ------------  ---------------
   217      6.896761  14 C  s               207     -6.209746  13 H  s         
    56     -5.850867   5 C  s               499      3.424693  29 H  s         
    63     -3.329493   5 C  px              291      3.216658  17 H  s         
   130      2.928707   8 H  s               461     -2.902106  27 H  s         
   225      2.775627  14 C  py              147     -2.453344   9 C  px        

 Vector   86  Occ=0.000000D+00  E= 8.765819D-02
              MO Center=  1.0D+00,  1.6D+00, -3.8D-01, r^2= 3.6D+01
   Bfn.  Coefficient  Atom+Function         Bfn.  Coefficient  Atom+Function  
  ----- ------------  ---------------      ----- ------------  ---------------
   461      6.013126  27 H  s               418     -5.733140  24 H  s         
   164      5.615133  10 H  s               452     -4.020865  26 H  s         
   403     -3.460226  23 C  pz              428      3.383255  25 C  s         
   318      3.284944  19 C  py              436     -3.022397  25 C  py        
   368     -2.923277  21 N  py              149     -2.744102   9 C  pz        

 Vector   87  Occ=0.000000D+00  E= 9.533354D-02
              MO Center= -1.2D+00, -6.3D-02, -2.6D-02, r^2= 3.7D+01
   Bfn.  Coefficient  Atom+Function         Bfn.  Coefficient  Atom+Function  
  ----- ------------  ---------------      ----- ------------  ---------------
   207      7.270053  13 H  s               217      7.055458  14 C  s         
   148      6.859318   9 C  py              130     -6.437505   8 H  s         
   384     -5.202372  22 H  s               360     -3.902909  21 N  s         
   499      3.616648  29 H  s                37     -3.488742   3 H  s         
   318      3.429729  19 C  py               56     -3.275359   5 C  s         

 Vector   88  Occ=0.000000D+00  E= 9.830575D-02
              MO Center= -8.4D-01,  1.1D+00,  8.5D-01, r^2= 4.0D+01
   Bfn.  Coefficient  Atom+Function         Bfn.  Coefficient  Atom+Function  
  ----- ------------  ---------------      ----- ------------  ---------------
   217      8.683795  14 C  s               583     -5.569272  33 H  s         
   499     -4.842168  29 H  s               148      4.812968   9 C  py        
   472      4.745690  28 S  s                37      3.208089   3 H  s         
   318      3.115375  19 C  py              452      3.014139  26 H  s         
     3     -2.858394   1 H  s               360     -2.754097  21 N  s         

 Vector   89  Occ=0.000000D+00  E= 1.083641D-01
              MO Center= -7.7D-01, -4.3D-01,  9.0D-01, r^2= 3.2D+01
   Bfn.  Coefficient  Atom+Function         Bfn.  Coefficient  Atom+Function  
  ----- ------------  ---------------      ----- ------------  ---------------
   384      7.617203  22 H  s               402      4.523893  23 C  py        
   428     -4.429012  25 C  s               452     -4.430200  26 H  s         
   225      4.094969  14 C  py              583     -4.053679  33 H  s         
   106      4.014208   7 N  s               318      3.925762  19 C  py        
   164     -3.013231  10 H  s               401      3.016174  23 C  px        

 Vector   90  Occ=0.000000D+00  E= 1.113056D-01
              MO Center= -2.8D-01, -3.2D-01,  1.2D+00, r^2= 3.3D+01
[...]
   317      8.492621  19 C  px              147     -6.024312   9 C  px        
   217      4.942349  14 C  s                 2     -4.467995   1 H  s         
   106     -4.134655   7 N  s               401     -4.044937  23 C  px        
   318     -3.750174  19 C  py              140     -3.380683   9 C  s         
   428     -3.194373  25 C  s                22      3.144156   2 C  pz        

 Vector  175  Occ=0.000000D+00  E= 4.394571D-01
              MO Center= -7.8D-02, -6.3D-01, -7.2D-01, r^2= 2.2D+01
   Bfn.  Coefficient  Atom+Function         Bfn.  Coefficient  Atom+Function  
  ----- ------------  ---------------      ----- ------------  ---------------
    56     15.092894   5 C  s               317     11.952644  19 C  px        
    13      8.208410   2 C  s                63      8.124585   5 C  px        
   267     -7.712880  16 N  s               173      7.367228  11 C  s         
   113      6.460483   7 N  px              147      6.210855   9 C  px        
   114     -6.007213   7 N  py              318      5.969297  19 C  py        

 Vector  176  Occ=0.000000D+00  E= 4.403813D-01
              MO Center=  1.9D-01, -7.2D-01, -4.9D-01, r^2= 2.2D+01
   Bfn.  Coefficient  Atom+Function         Bfn.  Coefficient  Atom+Function  
  ----- ------------  ---------------      ----- ------------  ---------------
   509      9.526091  30 C  s               147     -8.573861   9 C  px        
   217     -8.004411  14 C  s               181      7.142274  11 C  px        
   106     -6.501617   7 N  s               319      5.803852  19 C  pz        
   417     -5.043086  24 H  s               318     -4.932015  19 C  py        
   317     -4.882777  19 C  px               12     -4.785616   2 C  s         

 Vector  177  Occ=0.000000D+00  E= 4.422767D-01
              MO Center= -1.5D+00, -2.9D-01, -4.1D-01, r^2= 2.1D+01
   Bfn.  Coefficient  Atom+Function         Bfn.  Coefficient  Atom+Function  
  ----- ------------  ---------------      ----- ------------  ---------------
   509     12.364256  30 C  s               318     10.513321  19 C  py        
    56      9.630054   5 C  s               428     -8.970300  25 C  s         
   148     -8.322739   9 C  py              559     -8.033859  32 N  s         
   360     -7.320147  21 N  s               317      7.266243  19 C  px        
   113      6.986734   7 N  px               45      6.526673   4 H  s         

 Vector  178  Occ=0.000000D+00  E= 4.463714D-01
              MO Center= -1.2D+00, -2.3D-01, -4.5D-02, r^2= 2.2D+01
   Bfn.  Coefficient  Atom+Function         Bfn.  Coefficient  Atom+Function  
  ----- ------------  ---------------      ----- ------------  ---------------
   509     15.584905  30 C  s               217     10.340571  14 C  s         
    12     -8.379102   2 C  s                56     -8.198534   5 C  s         
   394      8.209263  23 C  s               173      7.353015  11 C  s         
   149     -6.803130   9 C  pz              428     -6.452303  25 C  s         
   197     -6.411254  12 H  s               206     -5.862632  13 H  s         

 Vector  179  Occ=0.000000D+00  E= 4.484374D-01
              MO Center=  8.5D-01,  1.4D-01,  2.4D-01, r^2= 2.0D+01
   Bfn.  Coefficient  Atom+Function         Bfn.  Coefficient  Atom+Function  
  ----- ------------  ---------------      ----- ------------  ---------------
   428     10.264769  25 C  s               225      9.125684  14 C  py        
   181      8.361459  11 C  px              317     -7.638561  19 C  px        
   114     -7.487069   7 N  py              182     -7.371651  11 C  py        
   559     -6.897718  32 N  s               106     -6.561286   7 N  s         
   368     -5.346413  21 N  py              360     -4.860523  21 N  s         

 Vector  180  Occ=0.000000D+00  E= 4.571202D-01
              MO Center=  2.0D-01, -2.9D-01, -7.1D-02, r^2= 2.1D+01
   Bfn.  Coefficient  Atom+Function         Bfn.  Coefficient  Atom+Function  
  ----- ------------  ---------------      ----- ------------  ---------------
   509      8.096574  30 C  s               225      6.972531  14 C  py        
   163      6.687688  10 H  s               181      6.098635  11 C  px        
   147     -5.921004   9 C  px              267      5.903227  16 N  s         
   173     -5.204305  11 C  s               148      5.066960   9 C  py        
   182     -5.083303  11 C  py              428     -4.931111  25 C  s         

 Vector  181  Occ=0.000000D+00  E= 4.575980D-01
              MO Center= -3.0D-01,  6.1D-01,  2.2D-01, r^2= 2.2D+01
   Bfn.  Coefficient  Atom+Function         Bfn.  Coefficient  Atom+Function  
  ----- ------------  ---------------      ----- ------------  ---------------
   217     20.404938  14 C  s               401     11.931544  23 C  px        
   509    -10.576384  30 C  s               267    -10.475804  16 N  s         
   174      8.734920  11 C  s                56     -8.672216   5 C  s         
   318      7.991215  19 C  py              368      6.626428  21 N  py        
    81      5.833792   6 O  s               148      5.860243   9 C  py        

 Vector  182  Occ=0.000000D+00  E= 4.621188D-01
              MO Center= -6.8D-01,  4.2D-01,  1.1D-01, r^2= 2.2D+01
   Bfn.  Coefficient  Atom+Function         Bfn.  Coefficient  Atom+Function  
  ----- ------------  ---------------      ----- ------------  ---------------
   217     17.384345  14 C  s               318     10.920176  19 C  py        
   367      8.117650  21 N  px              509     -7.293167  30 C  s         
   182      6.837374  11 C  py               56     -6.409064   5 C  s         
   106      5.701758   7 N  s               181     -5.489729  11 C  px        
   401      5.357995  23 C  px              148      5.233578   9 C  py        

 Vector  183  Occ=0.000000D+00  E= 4.700338D-01
              MO Center= -9.5D-01, -5.5D-01,  1.5D-01, r^2= 2.2D+01
   Bfn.  Coefficient  Atom+Function         Bfn.  Coefficient  Atom+Function  
  ----- ------------  ---------------      ----- ------------  ---------------
   217      9.388348  14 C  s               147      8.527297   9 C  px        
   317     -7.944533  19 C  px              267     -7.612486  16 N  s         
   242     -5.622098  15 O  s               113     -5.493002   7 N  px        
   173      5.406346  11 C  s               360     -5.413344  21 N  s         
   517     -5.367806  30 C  py              197     -4.693723  12 H  s         

 Vector  184  Occ=0.000000D+00  E= 4.744439D-01
              MO Center= -1.7D-01,  8.0D-01, -9.9D-02, r^2= 2.0D+01
   Bfn.  Coefficient  Atom+Function         Bfn.  Coefficient  Atom+Function  
  ----- ------------  ---------------      ----- ------------  ---------------
   509     15.836419  30 C  s               318    -13.366897  19 C  py        
   147    -12.455193   9 C  px              217     12.393364  14 C  s         
   401    -11.735465  23 C  px              394     10.861337  23 C  s         
   148     10.612225   9 C  py               56     -8.657917   5 C  s         
   559     -7.452063  32 N  s               417     -7.154979  24 H  s         

 Vector  185  Occ=0.000000D+00  E= 4.772557D-01
              MO Center= -4.3D-01, -6.6D-01, -5.0D-02, r^2= 1.8D+01
   Bfn.  Coefficient  Atom+Function         Bfn.  Coefficient  Atom+Function  
  ----- ------------  ---------------      ----- ------------  ---------------
   147     19.358376   9 C  px               56     13.574046   5 C  s         
   317    -10.175141  19 C  px              401      9.460986  23 C  px        
   114     -9.194119   7 N  py              318      8.701308  19 C  py        
   106      7.967629   7 N  s               217     -6.909273  14 C  s         
   173      5.949009  11 C  s               148     -5.876710   9 C  py        

 Vector  186  Occ=0.000000D+00  E= 4.855201D-01
              MO Center=  9.0D-01, -5.1D-01, -1.6D-01, r^2= 2.0D+01
   Bfn.  Coefficient  Atom+Function         Bfn.  Coefficient  Atom+Function  
  ----- ------------  ---------------      ----- ------------  ---------------
   428     11.977389  25 C  s               217      8.484834  14 C  s         
   402     -7.777303  23 C  py              148      6.605848   9 C  py        
    56     -6.509184   5 C  s                63     -6.120358   5 C  px        
   319     -5.849407  19 C  pz              472     -5.756854  28 S  s         
   517      5.467488  30 C  py               12      5.418967   2 C  s         

 Vector  187  Occ=0.000000D+00  E= 4.894480D-01
              MO Center=  1.4D-01,  9.1D-01,  4.1D-01, r^2= 1.7D+01
   Bfn.  Coefficient  Atom+Function         Bfn.  Coefficient  Atom+Function  
  ----- ------------  ---------------      ----- ------------  ---------------
   428     27.715608  25 C  s               402    -13.120125  23 C  py        
   360    -11.323964  21 N  s               509     -9.477269  30 C  s         
   384     -9.204285  22 H  s               451     -8.264395  26 H  s         
   559      7.737796  32 N  s               394     -6.850378  23 C  s         
   147     -6.564465   9 C  px               56     -6.491294   5 C  s         

 Vector  188  Occ=0.000000D+00  E= 4.920254D-01
              MO Center=  3.5D-01, -6.5D-01, -5.5D-02, r^2= 1.9D+01
   Bfn.  Coefficient  Atom+Function         Bfn.  Coefficient  Atom+Function  
  ----- ------------  ---------------      ----- ------------  ---------------
   428     15.867324  25 C  s               148      7.892160   9 C  py        
   402     -7.565980  23 C  py              368      7.305391  21 N  py        
   451     -6.015883  26 H  s               217      5.789583  14 C  s         
   149     -5.548756   9 C  pz              318     -5.193784  19 C  py        
   174      4.942511  11 C  s               417     -4.914868  24 H  s         

 Vector  189  Occ=0.000000D+00  E= 4.962812D-01
              MO Center=  5.4D-01, -6.1D-01, -1.5D-01, r^2= 2.0D+01
   Bfn.  Coefficient  Atom+Function         Bfn.  Coefficient  Atom+Function  
  ----- ------------  ---------------      ----- ------------  ---------------
   317     10.996354  19 C  px              360    -10.076245  21 N  s         
    56      7.545949   5 C  s               509      7.561207  30 C  s         
    63      6.940892   5 C  px              335     -6.801939  20 O  s         
   217      6.141748  14 C  s                13      5.851542   2 C  s         
   113      5.702413   7 N  px              401     -5.647003  23 C  px        

 Vector  190  Occ=0.000000D+00  E= 4.980848D-01
              MO Center= -1.1D+00, -7.8D-01, -2.3D-01, r^2= 2.0D+01
   Bfn.  Coefficient  Atom+Function         Bfn.  Coefficient  Atom+Function  
  ----- ------------  ---------------      ----- ------------  ---------------
   509     10.361789  30 C  s               428     -8.668030  25 C  s         
   402      6.458245  23 C  py              318      5.638151  19 C  py        
   113     -5.143992   7 N  px              147      5.022431   9 C  px        
    36      4.708317   3 H  s               394      4.484504  23 C  s         
   148     -4.202479   9 C  py              534     -4.213423  31 O  s         

 Vector  191  Occ=0.000000D+00  E= 5.024678D-01
              MO Center= -8.5D-02, -3.1D-01,  1.5D-01, r^2= 2.1D+01
   Bfn.  Coefficient  Atom+Function         Bfn.  Coefficient  Atom+Function  
  ----- ------------  ---------------      ----- ------------  ---------------
   217    -18.378788  14 C  s                56     16.949813   5 C  s         
   148     -9.712538   9 C  py              509      8.250876  30 C  s         
   181      8.059054  11 C  px               63      7.578017   5 C  px        
   267      7.409145  16 N  s               173     -6.905667  11 C  s         
   428     -6.187744  25 C  s               403      5.643180  23 C  pz        


 center of mass
 --------------
 x =   0.05733849 y =   0.04846993 z =  -0.00067558

 moments of inertia (a.u.)
 ------------------
        5320.232361181927           0.000000000000           0.000000000002
           0.000000000000        4634.283800425088          -0.000000000001
           0.000000000002          -0.000000000001        9237.642716056127

  Mulliken analysis of the total density
  --------------------------------------

    Atom       Charge   Shell Charges
 -----------   ------   -------------------------------------------------------
    1 H    1     0.88   0.76  0.16 -0.00  0.03 -0.06
    2 C    6     6.07   2.01  0.66  0.15 -0.01  2.07  1.04  0.01  0.06  0.08
    3 H    1     1.01   0.76  0.25  0.00  0.03 -0.04
    4 H    1     0.89   0.76  0.16 -0.00  0.03 -0.06
    5 C    6     5.04   2.01  0.68  0.05 -0.09  1.89  0.30  0.00  0.24 -0.04
    6 O    8     8.79   2.01  0.82  1.00  0.16  2.80  1.87  0.14  0.02 -0.01
    7 N    7     7.78   2.01  0.72  0.95 -0.06  2.45  1.46  0.14  0.05  0.06
    8 H    1     0.98   0.77  0.21 -0.02  0.05 -0.04
    9 C    6     6.47   2.01  0.66  0.16  0.04  2.00  1.30  0.07  0.14  0.11
   10 H    1     1.16   0.78  0.30  0.01  0.03  0.04
   11 C    6     6.44   2.01  0.67  0.64 -0.08  2.06  0.81 -0.03  0.09  0.29
   12 H    1     0.77   0.77  0.09 -0.01  0.03 -0.11
   13 H    1     0.83   0.78  0.10 -0.01  0.03 -0.07
   14 C    6     4.64   2.01  0.68 -0.00  0.20  1.90 -0.16 -0.02  0.24 -0.20
   15 O    8     8.82   2.01  0.82  1.02  0.16  2.80  1.86  0.15  0.02 -0.01
   16 N    7     7.32   2.01  0.72  0.87 -0.14  2.47  1.27  0.07  0.04 -0.00
   17 H    1     0.98   0.76  0.20 -0.01  0.06 -0.03
   18 H    1     0.95   0.75  0.18 -0.01  0.06 -0.03
   19 C    6     4.31   2.01  0.68 -0.13  0.05  1.89  0.02 -0.01  0.24 -0.44
   20 O    8     8.85   2.01  0.82  1.05  0.16  2.79  1.88  0.13  0.01  0.00
   21 N    7     7.69   2.01  0.72  0.80  0.05  2.45  1.45  0.11  0.06  0.03
   22 H    1     0.84   0.75  0.13 -0.02  0.06 -0.08
   23 C    6     6.33   2.01  0.67  0.12 -0.01  1.99  1.27  0.02  0.14  0.13
   24 H    1     1.00   0.78  0.18 -0.01  0.03  0.03
   25 C    6     6.05   2.01  0.66  0.10 -0.01  1.99  1.15 -0.00  0.10  0.06
   26 H    1     1.03   0.77  0.25  0.01  0.03 -0.03
   27 H    1     1.10   0.76  0.36 -0.00  0.03 -0.04
   28 S   16    15.42   2.00  2.03  0.86  0.66  0.06  6.00  2.32  1.53  0.04  0.10 -0.19
   29 H    1     1.12   0.69  0.34  0.03  0.04  0.03
   30 C    6     4.54   2.01  0.68  0.12 -0.00  1.89 -0.21 -0.04  0.24 -0.14
   31 O    8     8.80   2.01  0.82  1.03  0.17  2.79  1.83  0.14  0.01 -0.01
   32 N    7     7.20   2.01  0.72  0.83 -0.19  2.46  1.22  0.11  0.04 -0.01
   33 H    1     0.90   0.74  0.26 -0.03  0.06 -0.12
   34 H    1     1.01   0.76  0.23 -0.00  0.05 -0.03

       Multipole analysis of the density wrt the origin
       ------------------------------------------------

     L   x y z        total         open         nuclear
     -   - - -        -----         ----         -------
     0   0 0 0     -0.000000      0.000000    146.000000

     1   1 0 0     -2.407617      0.000000      0.000000
     1   0 1 0     -3.737193      0.000000      0.000000
     1   0 0 1     -0.117878      0.000000     -0.000000

     2   2 0 0    -83.284442      0.000000   2338.373471
     2   1 1 0     -2.587724      0.000000      1.566781
     2   1 0 1      5.683008      0.000000     15.869940
     2   0 2 0    -75.982370      0.000000   2668.533799
     2   0 1 1      5.501875      0.000000     17.344102
     2   0 0 2    -90.985291      0.000000    201.699840


 Task  times  cpu:     4379.1s     wall:     4400.3s


                                NWChem Input Module
                                -------------------


 Summary of allocated global arrays
-----------------------------------
  No active global arrays


MA_summarize_allocated_blocks: starting scan ...
MA_summarize_allocated_blocks: scan completed: 0 heap blocks, 0 stack blocks
MA usage statistics:

	allocation statistics:
					      heap	     stack
					      ----	     -----
	current number of blocks	         0	         0
	maximum number of blocks	        16	        14
	current total bytes		         0	         0
	maximum total bytes		    136736	  33860760
	maximum total K-bytes		       137	     33861
	maximum total M-bytes		         1	        34


                                     CITATION
                                     --------
                Please cite the following reference when publishing
                           results obtained with NWChem:

          E. Apra, E. J. Bylaska, W. A. de Jong, N. Govind, K. Kowalski,
       T. P. Straatsma, M. Valiev, H. J. J. van Dam, Y. Alexeev, J. Anchell,
       V. Anisimov, F. W. Aquino, R. Atta-Fynn, J. Autschbach, N. P. Bauman,
     J. C. Becca, D. E. Bernholdt, K. Bhaskaran-Nair, S. Bogatko, P. Borowski,
         J. Boschen, J. Brabec, A. Bruner, E. Cauet, Y. Chen, G. N. Chuev,
      C. J. Cramer, J. Daily, M. J. O. Deegan, T. H. Dunning Jr., M. Dupuis,
   K. G. Dyall, G. I. Fann, S. A. Fischer, A. Fonari, H. Fruchtl, L. Gagliardi,
      J. Garza, N. Gawande, S. Ghosh, K. Glaesemann, A. W. Gotz, J. Hammond,
       V. Helms, E. D. Hermes, K. Hirao, S. Hirata, M. Jacquelin, L. Jensen,
   B. G. Johnson, H. Jonsson, R. A. Kendall, M. Klemm, R. Kobayashi, V. Konkov,
      S. Krishnamoorthy, M. Krishnan, Z. Lin, R. D. Lins, R. J. Littlefield,
      A. J. Logsdail, K. Lopata, W. Ma, A. V. Marenich, J. Martin del Campo,
   D. Mejia-Rodriguez, J. E. Moore, J. M. Mullin, T. Nakajima, D. R. Nascimento,
    J. A. Nichols, P. J. Nichols, J. Nieplocha, A. Otero-de-la-Roza, B. Palmer,
    A. Panyala, T. Pirojsirikul, B. Peng, R. Peverati, J. Pittner, L. Pollack,
   R. M. Richard, P. Sadayappan, G. C. Schatz, W. A. Shelton, D. W. Silverstein,
   D. M. A. Smith, T. A. Soares, D. Song, M. Swart, H. L. Taylor, G. S. Thomas,
            V. Tipparaju, D. G. Truhlar, K. Tsemekhman, T. Van Voorhis,
      A. Vazquez-Mayagoitia, P. Verma, O. Villa, A. Vishnu, K. D. Vogiatzis,
        D. Wang, J. H. Weare, M. J. Williamson, T. L. Windus, K. Wolinski,
        A. T. Wong, Q. Wu, C. Yang, Q. Yu, M. Zacharias, Z. Zhang, Y. Zhao,
                                and R. J. Harrison
                        "NWChem: Past, present, and future
                         J. Chem. Phys. 152, 184102 (2020)
                               doi:10.1063/5.0004997

                                      AUTHORS
                                      -------
  E. Apra, E. J. Bylaska, N. Govind, K. Kowalski, M. Valiev, D. Mejia-Rodriguez,
       A. Kunitsa, N. P. Bauman, A. Panyala, W. A. de Jong, T. P. Straatsma,
   H. J. J. van Dam, D. Wang, T. L. Windus, J. Hammond, J. Autschbach, A. Woods,
    K. Bhaskaran-Nair, J. Brabec, K. Lopata, S. A. Fischer, S. Krishnamoorthy,
     M. Jacquelin, W. Ma, M. Klemm, O. Villa, Y. Chen, V. Anisimov, F. Aquino,
     S. Hirata, M. T. Hackler, E. Hermes, L. Jensen, J. E. Moore, J. C. Becca,
      V. Konjkov, T. Risthaus, M. Malagoli, A. Marenich, A. Otero-de-la-Roza,
        J. Mullin, P. Nichols, R. Peverati, J. Pittner, Y. Zhao, P.-D. Fan,
        A. Fonari, M. J. Williamson, R. J. Harrison, J. R. Rehr, M. Dupuis,
     D. Silverstein, D. M. A. Smith, J. Nieplocha, V. Tipparaju, M. Krishnan,
     B. E. Van Kuiken, A. Vazquez-Mayagoitia, M. Swart, Q. Wu, T. Van Voorhis,
     A. A. Auer, M. Nooijen, L. D. Crosby, E. Brown, G. Cisneros, G. I. Fann,
   H. Fruchtl, J. Garza, K. Hirao, R. A. Kendall, J. A. Nichols, K. Tsemekhman,
    K. Wolinski, J. Anchell, D. E. Bernholdt, P. Borowski, T. Clark, D. Clerc,
   H. Dachsel, M. J. O. Deegan, K. Dyall, D. Elwood, E. Glendening, M. Gutowski,
   A. C. Hess, J. Jaffe, B. G. Johnson, J. Ju, R. Kobayashi, R. Kutteh, Z. Lin,
   R. Littlefield, X. Long, B. Meng, T. Nakajima, S. Niu, L. Pollack, M. Rosing,
   K. Glaesemann, G. Sandrone, M. Stave, H. Taylor, G. Thomas, J. H. van Lenthe,
                               A. T. Wong, Z. Zhang.

 Total times  cpu:     4379.1s     wall:     4400.8s
