export TMOUT=5400
export TMPDIR=/tmp
export PTMPDIR=/tmp/ptmp
 argument  1 = inputs/ASP_GLU_2.nw



============================== echo of input deck ==============================
start ASP_GLU_2
geometry
H          0.65200        6.56500       -3.56400
C          0.16900        7.51400       -3.34200
H         -0.62600        7.36700       -2.61400
H         -0.23700        7.95400       -4.25000
C          1.18900        8.45800       -2.75600
O          2.32500        8.06500       -2.51900
N          0.77000        9.69900       -2.53900
H         -0.14700        9.96400       -2.89100
C          1.59100       10.81400       -2.04300
H          2.50800       10.84300       -2.63200
C          0.83800       12.14400       -2.27100
H          0.09300       12.25700       -1.48100
H          1.54700       12.96800       -2.17000
C          0.10700       12.25300       -3.62000
O         -0.88300       11.50400       -3.81200
O          0.52700       13.09400       -4.44500
C          2.00800       10.68700       -0.55900
O          2.91000       11.39000       -0.10600
N          1.35900        9.79800        0.20000
H          0.66500        9.22400       -0.25600
C          1.63300        9.48400        1.61000
H          2.71200        9.52300        1.77200
C          0.95100       10.52500        2.53000
H          0.70400       11.41200        1.94400
H          0.01100       10.12400        2.91000
C          1.81900       11.00600        3.70700
H          2.76000       11.39900        3.31700
H          1.30100       11.83600        4.19600
C          2.10200        9.91100        4.74300
O          1.29100        9.76700        5.68500
O          3.11600        9.19500        4.57100
C          1.14800        8.05000        1.91900
O          0.27600        7.50500        1.24000
N          1.68600        7.40000        2.93900
H          2.35500        7.87600        3.54200
H          1.34700        6.48300        3.16200
end

basis
 * library aug-cc-pvdz
end

echo

scf
 direct
end

task scf energy
================================================================================


                                         
                                         


             Northwest Computational Chemistry Package (NWChem) 7.2.0
             --------------------------------------------------------


                    Environmental Molecular Sciences Laboratory
                       Pacific Northwest National Laboratory
                                Richland, WA 99352

                              Copyright (c) 1994-2022
                       Pacific Northwest National Laboratory
                            Battelle Memorial Institute

             NWChem is an open-source computational chemistry package
                        distributed under the terms of the
                      Educational Community License (ECL) 2.0
             A copy of the license is included with this distribution
                              in the LICENSE.TXT file

                                  ACKNOWLEDGMENT
                                  --------------

            This software and its documentation were developed at the
            EMSL at Pacific Northwest National Laboratory, a multiprogram
            national laboratory, operated for the U.S. Department of Energy
            by Battelle under Contract Number DE-AC05-76RL01830. Support
            for this work was provided by the Department of Energy Office
            of Biological and Environmental Research, Office of Basic
            Energy Sciences, and the Office of Advanced Scientific Computing.


           Job information
           ---------------

    hostname        = nova21-swift-3
    program         = /opt/rit/el9/20230413/app/linux-rhel9-x86_64_v3/gcc-11.2.1/nwchem-7.2.0-oxtctbuhfuzyfaoziquq6bki22grib3g/bin/nwchem
    date            = Fri Jul 11 03:00:06 2025

    compiled        = Wed_May_17_23:46:39_2023
    source          = /tmp/root/spack-stage/spack-stage-nwchem-7.2.0-oxtctbuhfuzyfaoziquq6bki22grib3g/spack-src
    nwchem branch   = 7.2.0
    nwchem revision = d0d141fd
    ga revision     = 5.8.0
    use scalapack   = T
    input           = inputs/ASP_GLU_2.nw
    prefix          = ASP_GLU_2.
    data base       = ./ASP_GLU_2.db
    status          = startup
    nproc           =        8
    time left       =     -1s



           Memory information
           ------------------

    heap     =   26214398 doubles =    200.0 Mbytes
    stack    =   26214395 doubles =    200.0 Mbytes
    global   =   52428800 doubles =    400.0 Mbytes (distinct from heap & stack)
    total    =  104857593 doubles =    800.0 Mbytes
    verify   = yes
    hardfail = no 


           Directory information
           ---------------------

  0 permanent = .
  0 scratch   = .




                                NWChem Input Module
                                -------------------



 Scaling coordinates for geometry "geometry" by  1.889725989
 (inverse scale =  0.529177249)

 C1  symmetry detected

          ------
          auto-z
          ------
  no constraints, skipping    0.0000000000000000     
  no constraints, skipping    0.0000000000000000     


                             Geometry "geometry" -> ""
                             -------------------------

 Output coordinates in angstroms (scale by  1.889725989 to convert to a.u.)

  No.       Tag          Charge          X              Y              Z
 ---- ---------------- ---------- -------------- -------------- --------------
    1 H                    1.0000    -4.01448219    -2.91065167     0.11824880
    2 C                    6.0000    -3.07168197    -2.97294743    -0.42065841
    3 H                    1.0000    -3.11949499    -2.37332024    -1.32717877
    4 H                    1.0000    -2.84656758    -4.00690419    -0.67196881
    5 C                    6.0000    -1.96942719    -2.43254378     0.45565792
    6 O                    8.0000    -2.23719744    -1.93346974     1.54209162
    7 N                    7.0000    -0.73808296    -2.54922257    -0.02694797
    8 H                    1.0000    -0.60495704    -3.09623943    -0.87433693
    9 C                    6.0000     0.50136892    -2.16406486     0.66492960
   10 H                    1.0000     0.46884829    -2.58497966     1.67012816
   11 C                    6.0000     1.71090079    -2.78387174    -0.07043771
   12 H                    1.0000     1.93278634    -2.16976228    -0.94538363
   13 H                    1.0000     2.58037082    -2.73821087     0.58819341
   14 C                    6.0000     1.50472664    -4.22895520    -0.55548310
   15 O                    8.0000     0.67333241    -4.42470012    -1.47658709
   16 O                    8.0000     2.18914149    -5.12782730    -0.01890949
   17 C                    6.0000     0.69753533    -0.63748299     0.81770574
   18 O                    8.0000     1.53040585    -0.19527996     1.60751913
   19 N                    7.0000    -0.06096484     0.16945737     0.06862114
   20 H                    1.0000    -0.75551562    -0.26755421    -0.51931431
   21 C                    6.0000    -0.07117046     1.63941443     0.09852249
   22 H                    1.0000     0.06522724     1.96754892     1.13086421
   23 C                    6.0000     1.08812327     2.19793363    -0.76130270
   24 H                    1.0000     1.82418350     1.40874757    -0.92432020
   25 H                    1.0000     0.71383801     2.49024231    -1.74276446
   26 C                    6.0000     1.84561709     3.37831946    -0.12647485
   27 H                    1.0000     2.21015146     3.07818626     0.85793602
   28 H                    1.0000     2.72292590     3.59216705    -0.74368102
   29 C                    6.0000     0.99771809     4.65029491    -0.00175214
   30 O                    8.0000     0.99438021     5.45296605    -0.96171510
   31 O                    8.0000     0.32527133     4.80130710     1.04488375
   32 C                    6.0000    -1.44213199     2.15226620    -0.39595656
   33 O                    8.0000    -2.16352306     1.46457116    -1.12060853
   34 N                    7.0000    -1.84232206     3.35954996    -0.02899903
   35 H                    1.0000    -1.21595250     3.95434073     0.51102977
   36 H                    1.0000    -2.71573008     3.70718320    -0.37806718

      Atomic Mass 
      ----------- 

      H                  1.007825
      C                 12.000000
      O                 15.994910
      N                 14.003070


 Effective nuclear repulsion energy (a.u.)    1733.9164968030

            Nuclear Dipole moment (a.u.) 
            ----------------------------
        X                 Y               Z
 ---------------- ---------------- ----------------
     0.0000000000     0.0000000000    -0.0000000000



                                Z-matrix (autoz)
                                -------- 

 Units are Angstrom for bonds and degrees for angles

      Type          Name      I     J     K     L     M      Value
      ----------- --------  ----- ----- ----- ----- ----- ----------
    1 Stretch                  1     2                       1.08774
    2 Stretch                  2     3                       1.08794
    3 Stretch                  2     4                       1.08761
    4 Stretch                  2     5                       1.50829
    5 Stretch                  5     6                       1.22520
    6 Stretch                  5     7                       1.32768
    7 Stretch                  7     8                       1.01736
    8 Stretch                  7     9                       1.47081
    9 Stretch                  9    10                       1.09025
   10 Stretch                  9    11                       1.54528
   11 Stretch                  9    17                       1.54670
   12 Stretch                 11    12                       1.09174
   13 Stretch                 11    13                       1.09172
   14 Stretch                 11    14                       1.53819
   15 Stretch                 14    15                       1.25617
   16 Stretch                 14    16                       1.25072
   17 Stretch                 17    18                       1.23005
   18 Stretch                 17    19                       1.33701
   19 Stretch                 19    20                       1.00948
   20 Stretch                 19    21                       1.47030
   21 Stretch                 21    22                       1.09179
   22 Stretch                 21    23                       1.54764
   23 Stretch                 21    32                       1.54501
   24 Stretch                 23    24                       1.09141
   25 Stretch                 23    25                       1.09032
   26 Stretch                 23    26                       1.53952
   27 Stretch                 26    27                       1.09180
   28 Stretch                 26    28                       1.09378
   29 Stretch                 26    29                       1.53376
   30 Stretch                 29    30                       1.25133
   31 Stretch                 29    31                       1.25317
   32 Stretch                 32    33                       1.23225
   33 Stretch                 32    34                       1.32376
   34 Stretch                 34    35                       1.01870
   35 Stretch                 34    36                       1.00277
   36 Bend                     1     2     3               110.06971
   37 Bend                     1     2     4               110.38493
   38 Bend                     1     2     5               108.96875
   39 Bend                     2     5     6               120.09432
   40 Bend                     2     5     7               115.79130
   41 Bend                     3     2     4               109.90911
   42 Bend                     3     2     5               108.58785
   43 Bend                     4     2     5               108.88093
   44 Bend                     5     7     8               118.12387
   45 Bend                     5     7     9               125.98341
   46 Bend                     6     5     7               124.11244
   47 Bend                     7     9    10               107.90694
   48 Bend                     7     9    11               109.31205
   49 Bend                     7     9    17               114.31831
   50 Bend                     8     7     9               114.98281
   51 Bend                     9    11    12               108.35138
   52 Bend                     9    11    13               108.63315
   53 Bend                     9    11    14               114.95866
   54 Bend                     9    17    18               120.27327
   55 Bend                     9    17    19               117.93036
   56 Bend                    10     9    11               107.89360
   57 Bend                    10     9    17               107.08337
   58 Bend                    11     9    17               110.09714
   59 Bend                    11    14    15               117.79626
   60 Bend                    11    14    16               117.81057
   61 Bend                    12    11    13               107.34376
   62 Bend                    12    11    14               107.63673
   63 Bend                    13    11    14               109.65051
   64 Bend                    15    14    16               124.38576
   65 Bend                    17    19    20               117.08785
   66 Bend                    17    19    21               126.57996
   67 Bend                    18    17    19               121.79634
   68 Bend                    19    21    22               108.59280
   69 Bend                    19    21    23               110.13919
   70 Bend                    19    21    32               109.36070
   71 Bend                    20    19    21               116.09602
   72 Bend                    21    23    24               109.09974
   73 Bend                    21    23    25               109.85928
   74 Bend                    21    23    26               114.59321
   75 Bend                    21    32    33               121.49582
   76 Bend                    21    32    34               118.83371
   77 Bend                    22    21    23               108.86110
   78 Bend                    22    21    32               108.28324
   79 Bend                    23    21    32               111.53585
   80 Bend                    23    26    27               108.98416
   81 Bend                    23    26    28               108.17215
   82 Bend                    23    26    29               113.41474
   83 Bend                    24    23    25               106.91284
   84 Bend                    24    23    26               106.50911
   85 Bend                    25    23    26               109.54430
   86 Bend                    26    29    30               118.10331
   87 Bend                    26    29    31               117.67766
   88 Bend                    27    26    28               107.14113
   89 Bend                    27    26    29               109.83040
   90 Bend                    28    26    29               109.09653
   91 Bend                    30    29    31               124.19364
   92 Bend                    32    34    35               119.57532
   93 Bend                    32    34    36               118.88068
   94 Bend                    33    32    34               119.67044
   95 Bend                    35    34    36               121.17648
   96 Torsion                  1     2     5     6          -5.02365
   97 Torsion                  1     2     5     7         174.49075
   98 Torsion                  2     5     7     8          -8.15560
   99 Torsion                  2     5     7     9        -176.64979
  100 Torsion                  3     2     5     6         114.87263
  101 Torsion                  3     2     5     7         -65.61297
  102 Torsion                  4     2     5     6        -125.47628
  103 Torsion                  4     2     5     7          54.03813
  104 Torsion                  5     7     9    10          48.56751
  105 Torsion                  5     7     9    11         165.65672
  106 Torsion                  5     7     9    17         -70.43174
  107 Torsion                  6     5     7     8         171.33695
  108 Torsion                  6     5     7     9           2.84275
  109 Torsion                  7     9    11    12          79.54492
  110 Torsion                  7     9    11    13        -164.14060
  111 Torsion                  7     9    11    14         -40.88511
  112 Torsion                  7     9    17    18         164.72020
  113 Torsion                  7     9    17    19         -15.33300
  114 Torsion                  8     7     9    10        -120.24180
  115 Torsion                  8     7     9    11          -3.15259
  116 Torsion                  8     7     9    17         120.75895
  117 Torsion                  9    11    14    15          67.77335
  118 Torsion                  9    11    14    16        -113.17331
  119 Torsion                  9    17    19    20           3.22751
  120 Torsion                  9    17    19    21         177.39757
  121 Torsion                 10     9    11    12        -163.35745
  122 Torsion                 10     9    11    13         -47.04297
  123 Torsion                 10     9    11    14          76.21252
  124 Torsion                 10     9    17    18          45.25705
  125 Torsion                 10     9    17    19        -134.79615
  126 Torsion                 11     9    17    18         -71.78985
  127 Torsion                 11     9    17    19         108.15694
  128 Torsion                 12    11     9    17         -46.81606
  129 Torsion                 12    11    14    15         -53.04877
  130 Torsion                 12    11    14    16         126.00457
  131 Torsion                 13    11     9    17          69.49842
  132 Torsion                 13    11    14    15        -169.51528
  133 Torsion                 13    11    14    16           9.53806
  134 Torsion                 14    11     9    17        -167.24609
  135 Torsion                 17    19    21    22         -36.82450
  136 Torsion                 17    19    21    23          82.29633
  137 Torsion                 17    19    21    32        -154.79609
  138 Torsion                 18    17    19    20        -176.82655
  139 Torsion                 18    17    19    21          -2.65649
  140 Torsion                 19    21    23    24         -18.09434
  141 Torsion                 19    21    23    25          98.80361
  142 Torsion                 19    21    23    26        -137.38312
  143 Torsion                 19    21    32    33         -23.26610
  144 Torsion                 19    21    32    34         156.80100
  145 Torsion                 20    19    21    22         137.39603
  146 Torsion                 20    19    21    23        -103.48314
  147 Torsion                 20    19    21    32          19.42444
  148 Torsion                 21    23    26    27          55.62930
  149 Torsion                 21    23    26    28         171.79463
  150 Torsion                 21    23    26    29         -67.04878
  151 Torsion                 21    32    34    35           4.54369
  152 Torsion                 21    32    34    36         177.66771
  153 Torsion                 22    21    23    24         100.86267
  154 Torsion                 22    21    23    25        -142.23939
  155 Torsion                 22    21    23    26         -18.42612
  156 Torsion                 22    21    32    33        -141.43123
  157 Torsion                 22    21    32    34          38.63586
  158 Torsion                 23    21    32    33          98.80671
  159 Torsion                 23    21    32    34         -81.12619
  160 Torsion                 23    26    29    30         -89.07794
  161 Torsion                 23    26    29    31          89.16672
  162 Torsion                 24    23    21    32        -139.71719
  163 Torsion                 24    23    26    27         -65.10016
  164 Torsion                 24    23    26    28          51.06517
  165 Torsion                 24    23    26    29         172.22176
  166 Torsion                 25    23    21    32         -22.81925
  167 Torsion                 25    23    26    27         179.61044
  168 Torsion                 25    23    26    28         -64.22424
  169 Torsion                 25    23    26    29          56.93236
  170 Torsion                 26    23    21    32         100.99402
  171 Torsion                 27    26    29    30         148.71296
  172 Torsion                 27    26    29    31         -33.04237
  173 Torsion                 28    26    29    30          31.55774
  174 Torsion                 28    26    29    31        -150.19760
  175 Torsion                 33    32    34    35        -175.39047
  176 Torsion                 33    32    34    36          -2.26644


            XYZ format geometry
            -------------------
    36
 geometry
 H                    -4.01448219    -2.91065167     0.11824880
 C                    -3.07168197    -2.97294743    -0.42065841
 H                    -3.11949499    -2.37332024    -1.32717877
 H                    -2.84656758    -4.00690419    -0.67196881
 C                    -1.96942719    -2.43254378     0.45565792
 O                    -2.23719744    -1.93346974     1.54209162
 N                    -0.73808296    -2.54922257    -0.02694797
 H                    -0.60495704    -3.09623943    -0.87433693
 C                     0.50136892    -2.16406486     0.66492960
 H                     0.46884829    -2.58497966     1.67012816
 C                     1.71090079    -2.78387174    -0.07043771
 H                     1.93278634    -2.16976228    -0.94538363
 H                     2.58037082    -2.73821087     0.58819341
 C                     1.50472664    -4.22895520    -0.55548310
 O                     0.67333241    -4.42470012    -1.47658709
 O                     2.18914149    -5.12782730    -0.01890949
 C                     0.69753533    -0.63748299     0.81770574
 O                     1.53040585    -0.19527996     1.60751913
 N                    -0.06096484     0.16945737     0.06862114
 H                    -0.75551562    -0.26755421    -0.51931431
 C                    -0.07117046     1.63941443     0.09852249
 H                     0.06522724     1.96754892     1.13086421
 C                     1.08812327     2.19793363    -0.76130270
 H                     1.82418350     1.40874757    -0.92432020
 H                     0.71383801     2.49024231    -1.74276446
 C                     1.84561709     3.37831946    -0.12647485
 H                     2.21015146     3.07818626     0.85793602
 H                     2.72292590     3.59216705    -0.74368102
 C                     0.99771809     4.65029491    -0.00175214
 O                     0.99438021     5.45296605    -0.96171510
 O                     0.32527133     4.80130710     1.04488375
 C                    -1.44213199     2.15226620    -0.39595656
 O                    -2.16352306     1.46457116    -1.12060853
 N                    -1.84232206     3.35954996    -0.02899903
 H                    -1.21595250     3.95434073     0.51102977
 H                    -2.71573008     3.70718320    -0.37806718

 ==============================================================================
                                internuclear distances
 ------------------------------------------------------------------------------
       center one      |      center two      | atomic units |  angstroms
 ------------------------------------------------------------------------------
    2 C                |   1 H                |     2.05553  |     1.08774
    3 H                |   2 C                |     2.05591  |     1.08794
    4 H                |   2 C                |     2.05529  |     1.08761
    5 C                |   2 C                |     2.85025  |     1.50829
    6 O                |   5 C                |     2.31529  |     1.22520
    7 N                |   5 C                |     2.50895  |     1.32768
    8 H                |   7 N                |     1.92253  |     1.01736
    9 C                |   7 N                |     2.77943  |     1.47081
   10 H                |   9 C                |     2.06028  |     1.09025
   11 C                |   9 C                |     2.92016  |     1.54528
   12 H                |  11 C                |     2.06309  |     1.09174
   13 H                |  11 C                |     2.06306  |     1.09172
   14 C                |  11 C                |     2.90677  |     1.53819
   15 O                |  14 C                |     2.37382  |     1.25617
   16 O                |  14 C                |     2.36352  |     1.25072
   17 C                |   9 C                |     2.92283  |     1.54670
   18 O                |  17 C                |     2.32446  |     1.23005
   19 N                |  17 C                |     2.52659  |     1.33701
   20 H                |  19 N                |     1.90764  |     1.00948
   21 C                |  19 N                |     2.77846  |     1.47030
   22 H                |  21 C                |     2.06318  |     1.09179
   23 C                |  21 C                |     2.92462  |     1.54764
   24 H                |  23 C                |     2.06246  |     1.09141
   25 H                |  23 C                |     2.06041  |     1.09032
   26 C                |  23 C                |     2.90927  |     1.53952
   27 H                |  26 C                |     2.06321  |     1.09180
   28 H                |  26 C                |     2.06694  |     1.09378
   29 C                |  26 C                |     2.89838  |     1.53376
   30 O                |  29 C                |     2.36467  |     1.25133
   31 O                |  29 C                |     2.36815  |     1.25317
   32 C                |  21 C                |     2.91965  |     1.54501
   33 O                |  32 C                |     2.32862  |     1.23225
   34 N                |  32 C                |     2.50155  |     1.32376
   35 H                |  34 N                |     1.92506  |     1.01870
   36 H                |  34 N                |     1.89495  |     1.00277
 ------------------------------------------------------------------------------
                         number of included internuclear distances:         35
 ==============================================================================



 ==============================================================================
                                 internuclear angles
 ------------------------------------------------------------------------------
        center 1       |       center 2       |       center 3       |  degrees
 ------------------------------------------------------------------------------
    1 H                |   2 C                |   3 H                |   110.07
    1 H                |   2 C                |   4 H                |   110.38
    1 H                |   2 C                |   5 C                |   108.97
    3 H                |   2 C                |   4 H                |   109.91
    3 H                |   2 C                |   5 C                |   108.59
    4 H                |   2 C                |   5 C                |   108.88
    2 C                |   5 C                |   6 O                |   120.09
    2 C                |   5 C                |   7 N                |   115.79
    6 O                |   5 C                |   7 N                |   124.11
    5 C                |   7 N                |   8 H                |   118.12
    5 C                |   7 N                |   9 C                |   125.98
    8 H                |   7 N                |   9 C                |   114.98
    7 N                |   9 C                |  10 H                |   107.91
    7 N                |   9 C                |  11 C                |   109.31
    7 N                |   9 C                |  17 C                |   114.32
   10 H                |   9 C                |  11 C                |   107.89
   10 H                |   9 C                |  17 C                |   107.08
   11 C                |   9 C                |  17 C                |   110.10
    9 C                |  11 C                |  12 H                |   108.35
    9 C                |  11 C                |  13 H                |   108.63
    9 C                |  11 C                |  14 C                |   114.96
   12 H                |  11 C                |  13 H                |   107.34
   12 H                |  11 C                |  14 C                |   107.64
   13 H                |  11 C                |  14 C                |   109.65
   11 C                |  14 C                |  15 O                |   117.80
   11 C                |  14 C                |  16 O                |   117.81
   15 O                |  14 C                |  16 O                |   124.39
    9 C                |  17 C                |  18 O                |   120.27
    9 C                |  17 C                |  19 N                |   117.93
   18 O                |  17 C                |  19 N                |   121.80
   17 C                |  19 N                |  20 H                |   117.09
   17 C                |  19 N                |  21 C                |   126.58
   20 H                |  19 N                |  21 C                |   116.10
   19 N                |  21 C                |  22 H                |   108.59
   19 N                |  21 C                |  23 C                |   110.14
   19 N                |  21 C                |  32 C                |   109.36
   22 H                |  21 C                |  23 C                |   108.86
   22 H                |  21 C                |  32 C                |   108.28
   23 C                |  21 C                |  32 C                |   111.54
   21 C                |  23 C                |  24 H                |   109.10
   21 C                |  23 C                |  25 H                |   109.86
   21 C                |  23 C                |  26 C                |   114.59
   24 H                |  23 C                |  25 H                |   106.91
   24 H                |  23 C                |  26 C                |   106.51
   25 H                |  23 C                |  26 C                |   109.54
   23 C                |  26 C                |  27 H                |   108.98
   23 C                |  26 C                |  28 H                |   108.17
   23 C                |  26 C                |  29 C                |   113.41
   27 H                |  26 C                |  28 H                |   107.14
   27 H                |  26 C                |  29 C                |   109.83
   28 H                |  26 C                |  29 C                |   109.10
   26 C                |  29 C                |  30 O                |   118.10
   26 C                |  29 C                |  31 O                |   117.68
   30 O                |  29 C                |  31 O                |   124.19
   21 C                |  32 C                |  33 O                |   121.50
   21 C                |  32 C                |  34 N                |   118.83
   33 O                |  32 C                |  34 N                |   119.67
   32 C                |  34 N                |  35 H                |   119.58
   32 C                |  34 N                |  36 H                |   118.88
   35 H                |  34 N                |  36 H                |   121.18
 ------------------------------------------------------------------------------
                            number of included internuclear angles:         60
 ==============================================================================



  library name resolved from: environment
  library file name is: </opt/rit/el9/20230413/app/linux-rhel9-x86_64_v3/gcc-11.2.1/nwchem-7.2.0-oxtctbuhfuzyfaoziquq6bki22grib3g/share/nwchem/libraries/>
  


 Summary of "ao basis" -> "" (cartesian)
 ------------------------------------------------------------------------------
       Tag                 Description            Shells   Functions and Types
 ---------------- ------------------------------  ------  ---------------------
 *                        aug-cc-pvdz                 on all atoms 


                      Basis "ao basis" -> "ao basis" (cartesian)
                      -----
  H (Hydrogen)
  ------------
            Exponent  Coefficients 
       -------------- ---------------------------------------------------------
  1 S  1.30100000E+01  0.019685
  1 S  1.96200000E+00  0.137977
  1 S  4.44600000E-01  0.478148

  2 S  1.22000000E-01  1.000000

  3 S  2.97400000E-02  1.000000

  4 P  7.27000000E-01  1.000000

  5 P  1.41000000E-01  1.000000

  C (Carbon)
  ----------
            Exponent  Coefficients 
       -------------- ---------------------------------------------------------
  1 S  6.66500000E+03  0.000692
  1 S  1.00000000E+03  0.005329
  1 S  2.28000000E+02  0.027077
  1 S  6.47100000E+01  0.101718
  1 S  2.10600000E+01  0.274740
  1 S  7.49500000E+00  0.448564
  1 S  2.79700000E+00  0.285074
  1 S  5.21500000E-01  0.015204

  2 S  6.66500000E+03 -0.000146
  2 S  1.00000000E+03 -0.001154
  2 S  2.28000000E+02 -0.005725
  2 S  6.47100000E+01 -0.023312
  2 S  2.10600000E+01 -0.063955
  2 S  7.49500000E+00 -0.149981
  2 S  2.79700000E+00 -0.127262
  2 S  5.21500000E-01  0.544529

  3 S  1.59600000E-01  1.000000

  4 S  4.69000000E-02  1.000000

  5 P  9.43900000E+00  0.038109
  5 P  2.00200000E+00  0.209480
  5 P  5.45600000E-01  0.508557

  6 P  1.51700000E-01  1.000000

  7 P  4.04100000E-02  1.000000

  8 D  5.50000000E-01  1.000000

  9 D  1.51000000E-01  1.000000

  O (Oxygen)
  ----------
            Exponent  Coefficients 
       -------------- ---------------------------------------------------------
  1 S  1.17200000E+04  0.000710
  1 S  1.75900000E+03  0.005470
  1 S  4.00800000E+02  0.027837
  1 S  1.13700000E+02  0.104800
  1 S  3.70300000E+01  0.283062
  1 S  1.32700000E+01  0.448719
  1 S  5.02500000E+00  0.270952
  1 S  1.01300000E+00  0.015458

  2 S  1.17200000E+04 -0.000160
  2 S  1.75900000E+03 -0.001263
  2 S  4.00800000E+02 -0.006267
  2 S  1.13700000E+02 -0.025716
  2 S  3.70300000E+01 -0.070924
  2 S  1.32700000E+01 -0.165411
  2 S  5.02500000E+00 -0.116955
  2 S  1.01300000E+00  0.557368

  3 S  3.02300000E-01  1.000000

  4 S  7.89600000E-02  1.000000

  5 P  1.77000000E+01  0.043018
  5 P  3.85400000E+00  0.228913
  5 P  1.04600000E+00  0.508728

  6 P  2.75300000E-01  1.000000

  7 P  6.85600000E-02  1.000000

  8 D  1.18500000E+00  1.000000

  9 D  3.32000000E-01  1.000000

  N (Nitrogen)
  ------------
            Exponent  Coefficients 
       -------------- ---------------------------------------------------------
  1 S  9.04600000E+03  0.000700
  1 S  1.35700000E+03  0.005389
  1 S  3.09300000E+02  0.027406
  1 S  8.77300000E+01  0.103207
  1 S  2.85600000E+01  0.278723
  1 S  1.02100000E+01  0.448540
  1 S  3.83800000E+00  0.278238
  1 S  7.46600000E-01  0.015440

  2 S  9.04600000E+03 -0.000153
  2 S  1.35700000E+03 -0.001208
  2 S  3.09300000E+02 -0.005992
  2 S  8.77300000E+01 -0.024544
  2 S  2.85600000E+01 -0.067459
  2 S  1.02100000E+01 -0.158078
  2 S  3.83800000E+00 -0.121831
  2 S  7.46600000E-01  0.549003

  3 S  2.24800000E-01  1.000000

  4 S  6.12400000E-02  1.000000

  5 P  1.35500000E+01  0.039919
  5 P  2.91700000E+00  0.217169
  5 P  7.97300000E-01  0.510319

  6 P  2.18500000E-01  1.000000

  7 P  5.61100000E-02  1.000000

  8 D  8.17000000E-01  1.000000

  9 D  2.30000000E-01  1.000000



 Summary of "ao basis" -> "ao basis" (cartesian)
 ------------------------------------------------------------------------------
       Tag                 Description            Shells   Functions and Types
 ---------------- ------------------------------  ------  ---------------------
 H                        aug-cc-pvdz                5        9   3s2p
 C                        aug-cc-pvdz                9       25   4s3p2d
 O                        aug-cc-pvdz                9       25   4s3p2d
 N                        aug-cc-pvdz                9       25   4s3p2d


                                 NWChem SCF Module
                                 -----------------



  ao basis        = "ao basis"
  functions       =   660
  atoms           =    36
  closed shells   =    79
  open shells     =     0
  charge          =   0.00
  wavefunction    = RHF 
  input vectors   = atomic
  output vectors  = ./ASP_GLU_2.movecs
  use symmetry    = F
  symmetry adapt  = F


 Summary of "ao basis" -> "ao basis" (cartesian)
 ------------------------------------------------------------------------------
       Tag                 Description            Shells   Functions and Types
 ---------------- ------------------------------  ------  ---------------------
 H                        aug-cc-pvdz                5        9   3s2p
 C                        aug-cc-pvdz                9       25   4s3p2d
 O                        aug-cc-pvdz                9       25   4s3p2d
 N                        aug-cc-pvdz                9       25   4s3p2d



 Forming initial guess at       0.8s


 !! The overlap matrix has   5 vectors deemed linearly dependent with
    eigenvalues:
 2.36D-06 2.79D-06 7.68D-06 7.97D-06 8.40D-06


      Superposition of Atomic Density Guess
      -------------------------------------

 Sum of atomic energies:       -1108.10309820

      Non-variational initial energy
      ------------------------------

 Total energy =   -1120.040758
 1-e energy   =   -4960.527994
 2-e energy   =    2106.570739
 HOMO         =      -0.319344
 LUMO         =      -0.308861


 Starting SCF solution at     263.0s



 ----------------------------------------------
         Quadratically convergent ROHF

 Convergence threshold     :          1.000E-04
 Maximum no. of iterations :           30
 Final Fock-matrix accuracy:          1.000E-10
 ----------------------------------------------


              iter       energy          gnorm     gmax       time
             ----- ------------------- --------- --------- --------
                 1    -1111.6367532415  3.63D+00  2.57D-01    537.6
  Setting level-shift to   3.33 to force positive preconditioner
                 2    -1112.3600388268  1.06D+00  6.17D-02    818.6
  Setting level-shift to   2.06 to force positive preconditioner
                 3    -1112.4374295169  5.15D-01  9.20D-02   1376.7
  ga_iter_lsolve: convergence stagnant ... aborting solve

 Disabled NR: increased maxiter to  40

                 4    -1112.4593929610  4.00D-01  3.25D-02   4629.3
                 5    -1112.4657534551  4.75D-01  8.99D-02   5479.2
                 6    -1112.4861831195  3.11D-01  3.50D-02   6061.5
                 7    -1112.4946868990  1.71D-01  2.94D-02   6616.7
                 8    -1112.4993037595  1.92D-01  3.11D-02   7173.6
                 9    -1112.5033985318  1.46D-01  1.96D-02   7741.1
                10    -1112.5046448527  9.85D-02  1.43D-02   8300.3
                11    -1112.5057866613  7.84D-02  1.24D-02   8871.3
                12    -1112.5063718737  7.25D-02  9.31D-03   9434.6
                13    -1112.5067352206  4.45D-02  9.00D-03   9996.3
                14    -1112.5069566404  4.84D-02  8.49D-03  10584.2
                15    -1112.5071604255  3.68D-02  6.80D-03  11162.6
                16    -1112.5073033861  3.65D-02  5.57D-03  11734.3
                17    -1112.5074571644  4.42D-02  5.04D-03  12302.2
                18    -1112.5076058437  3.56D-02  6.46D-03  12853.4
                19    -1112.5077323610  3.12D-02  3.97D-03  13420.3
                20    -1112.5077989529  2.42D-02  3.96D-03  13987.4
                21    -1112.5078582615  2.29D-02  2.21D-03  14552.4
                22    -1112.5078944731  1.67D-02  2.66D-03  15111.6
                23    -1112.5079212130  1.64D-02  1.99D-03  15671.7
                24    -1112.5079401887  1.17D-02  1.84D-03  16231.7
                25    -1112.5079524088  1.07D-02  1.34D-03  16789.2
                26    -1112.5079620622  8.73D-03  1.49D-03  17344.6
                27    -1112.5079688896  7.56D-03  1.19D-03  17906.2
                28    -1112.5079755660  9.10D-03  1.11D-03  18466.7
                29    -1112.5079832945  7.60D-03  1.34D-03  19026.2
                30    -1112.5079895511  9.00D-03  8.43D-04  19587.6
                31    -1112.5079958500  7.45D-03  1.14D-03  20146.5
                32    -1112.5080002123  6.13D-03  8.70D-04  20708.4
                33    -1112.5080032390  4.78D-03  1.03D-03  21264.7
                34    -1112.5080054244  4.52D-03  7.11D-04  21824.6
                35    -1112.5080070687  4.16D-03  7.51D-04  22389.5
                36    -1112.5080087742  4.01D-03  5.31D-04  22955.0
                37    -1112.5080099573  3.59D-03  6.35D-04  23521.0
                38    -1112.5080109644  2.79D-03  3.87D-04  24085.1
                39    -1112.5080117331  2.62D-03  3.51D-04  24650.6
                40    -1112.5080121959  2.02D-03  2.69D-04  25215.9

      Calculation failed to converge
      ------------------------------



       Final RHF  results 
       ------------------ 

         Total SCF energy =  -1112.508012195865
      One-electron energy =  -4968.877674458828
      Two-electron energy =   2122.453165460000
 Nuclear repulsion energy =   1733.916496802963

        Time for solution =  24954.1s


             Final eigenvalues
             -----------------

              1      
    1  -20.6584
    2  -20.6525
    3  -20.6371
    4  -20.5882
    5  -20.5867
    6  -20.5726
    7  -20.5470
    8  -15.6612
    9  -15.6515
   10  -15.6032
   11  -11.4287
   12  -11.4196
   13  -11.4177
   14  -11.3902
   15  -11.3844
   16  -11.3633
   17  -11.3361
   18  -11.3170
   19  -11.3003
   20  -11.2952
   21  -11.2625
   22   -1.4891
   23   -1.4771
   24   -1.4399
   25   -1.4265
   26   -1.4064
   27   -1.3814
   28   -1.3622
   29   -1.3050
   30   -1.2822
   31   -1.2357
   32   -1.1316
   33   -1.1164
   34   -1.0341
   35   -1.0267
   36   -0.9631
   37   -0.9118
   38   -0.8648
   39   -0.8419
   40   -0.8220
   41   -0.8118
   42   -0.7905
   43   -0.7765
   44   -0.7484
   45   -0.7366
   46   -0.7178
   47   -0.7153
   48   -0.7122
   49   -0.7078
   50   -0.6990
   51   -0.6862
   52   -0.6755
   53   -0.6618
   54   -0.6497
   55   -0.6470
   56   -0.6437
   57   -0.6361
   58   -0.6202
   59   -0.6143
   60   -0.6064
   61   -0.6027
   62   -0.5840
   63   -0.5816
   64   -0.5710
   65   -0.5675
   66   -0.5479
   67   -0.5445
   68   -0.5385
   69   -0.5088
   70   -0.5082
   71   -0.4891
   72   -0.4764
   73   -0.4718
   74   -0.4600
   75   -0.4510
   76   -0.4391
   77   -0.4254
   78   -0.4187
   79   -0.3513
   80   -0.2871
   81    0.0227
   82    0.0345
   83    0.0408
   84    0.0410
   85    0.0463
   86    0.0549
   87    0.0563
   88    0.0596
   89    0.0619

                       ROHF Final Molecular Orbital Analysis
                       -------------------------------------

 Vector   22  Occ=2.000000D+00  E=-1.489106D+00
              MO Center=  1.5D+00, -4.6D+00, -6.6D-01, r^2= 1.2D+00
   Bfn.  Coefficient  Atom+Function         Bfn.  Coefficient  Atom+Function  
  ----- ------------  ---------------      ----- ------------  ---------------
   266      0.293543  16 O  s               241      0.278519  15 O  s         
   265      0.276346  16 O  s               240      0.260922  15 O  s         
   215      0.257120  14 C  s               217     -0.213808  14 C  s         

 Vector   23  Occ=2.000000D+00  E=-1.477096D+00
              MO Center=  8.3D-01,  5.1D+00, -2.1D-01, r^2= 1.1D+00
   Bfn.  Coefficient  Atom+Function         Bfn.  Coefficient  Atom+Function  
  ----- ------------  ---------------      ----- ------------  ---------------
   520      0.341206  30 O  s               519      0.316902  30 O  s         
   494      0.256494  29 C  s               496     -0.225637  29 C  s         
   545      0.221781  31 O  s               544      0.213483  31 O  s         

 Vector   24  Occ=2.000000D+00  E=-1.439924D+00
              MO Center=  7.5D-01, -4.9D-01,  1.1D+00, r^2= 2.3D+00
   Bfn.  Coefficient  Atom+Function         Bfn.  Coefficient  Atom+Function  
  ----- ------------  ---------------      ----- ------------  ---------------
   316      0.339797  18 O  s               315      0.324900  18 O  s         
   290      0.233802  17 C  s         

 Vector   25  Occ=2.000000D+00  E=-1.426520D+00
              MO Center= -1.6D+00, -1.9D+00,  1.0D+00, r^2= 2.3D+00
   Bfn.  Coefficient  Atom+Function         Bfn.  Coefficient  Atom+Function  
  ----- ------------  ---------------      ----- ------------  ---------------
    80      0.331091   6 O  s                79      0.327091   6 O  s         
    54      0.234065   5 C  s                12      0.178863   2 C  s         

 Vector   26  Occ=2.000000D+00  E=-1.406377D+00
              MO Center= -1.8D+00,  1.8D+00, -7.4D-01, r^2= 1.3D+00
   Bfn.  Coefficient  Atom+Function         Bfn.  Coefficient  Atom+Function  
  ----- ------------  ---------------      ----- ------------  ---------------
   595      0.382677  33 O  s               594      0.347558  33 O  s         
   569      0.244381  32 C  s         

 Vector   27  Occ=2.000000D+00  E=-1.381420D+00
              MO Center=  1.4D+00, -4.6D+00, -7.1D-01, r^2= 1.5D+00
   Bfn.  Coefficient  Atom+Function         Bfn.  Coefficient  Atom+Function  
  ----- ------------  ---------------      ----- ------------  ---------------
   241      0.335230  15 O  s               266     -0.326966  16 O  s         
   240      0.311902  15 O  s               265     -0.304071  16 O  s         
   218     -0.176067  14 C  px              220     -0.166832  14 C  pz        

 Vector   28  Occ=2.000000D+00  E=-1.362244D+00
              MO Center=  6.6D-01,  4.9D+00,  2.6D-01, r^2= 1.3D+00
   Bfn.  Coefficient  Atom+Function         Bfn.  Coefficient  Atom+Function  
  ----- ------------  ---------------      ----- ------------  ---------------
   545      0.369704  31 O  s               544      0.341225  31 O  s         
   520     -0.291305  30 O  s               519     -0.266606  30 O  s         
   499      0.231369  29 C  pz        

 Vector   29  Occ=2.000000D+00  E=-1.304961D+00
              MO Center= -6.0D-01, -1.8D+00,  3.5D-01, r^2= 3.2D+00
   Bfn.  Coefficient  Atom+Function         Bfn.  Coefficient  Atom+Function  
  ----- ------------  ---------------      ----- ------------  ---------------
   105      0.328396   7 N  s               104      0.291746   7 N  s         
    80     -0.203328   6 O  s                79     -0.177715   6 O  s         
   316     -0.158923  18 O  s               340      0.151538  19 N  s         

 Vector   30  Occ=2.000000D+00  E=-1.282184D+00
              MO Center= -1.3D-01, -3.6D-01,  2.3D-01, r^2= 3.2D+00
   Bfn.  Coefficient  Atom+Function         Bfn.  Coefficient  Atom+Function  
  ----- ------------  ---------------      ----- ------------  ---------------
   341      0.391990  19 N  s               340      0.314967  19 N  s         
   105     -0.213792   7 N  s               104     -0.173039   7 N  s         
   316     -0.167209  18 O  s         

 Vector   31  Occ=2.000000D+00  E=-1.235679D+00
              MO Center= -1.8D+00,  2.9D+00, -2.1D-01, r^2= 1.4D+00
   Bfn.  Coefficient  Atom+Function         Bfn.  Coefficient  Atom+Function  
  ----- ------------  ---------------      ----- ------------  ---------------
   620      0.389693  34 N  s               619      0.366409  34 N  s         
   595     -0.224775  33 O  s               573      0.191861  32 C  py        
   594     -0.185637  33 O  s               643      0.158329  35 H  s         
   652      0.154986  36 H  s         

 Vector   32  Occ=2.000000D+00  E=-1.131613D+00
              MO Center=  6.3D-01,  8.3D-02, -2.5D-02, r^2= 8.6D+00
   Bfn.  Coefficient  Atom+Function         Bfn.  Coefficient  Atom+Function  
  ----- ------------  ---------------      ----- ------------  ---------------
   408      0.186225  23 C  s               138     -0.163751   9 C  s         
   172     -0.158144  11 C  s               452      0.154941  26 C  s         
   451      0.151316  26 C  s         

 Vector   33  Occ=2.000000D+00  E=-1.116431D+00
              MO Center=  8.8D-01, -1.5D-01, -8.2D-02, r^2= 9.7D+00
   Bfn.  Coefficient  Atom+Function         Bfn.  Coefficient  Atom+Function  
  ----- ------------  ---------------      ----- ------------  ---------------
   172      0.199388  11 C  s               408      0.179852  23 C  s         
   451      0.173125  26 C  s               138      0.164155   9 C  s         
   173      0.150575  11 C  s         

 Vector   34  Occ=2.000000D+00  E=-1.034099D+00
              MO Center= -2.6D-01, -7.9D-01, -1.0D-01, r^2= 1.2D+01
   Bfn.  Coefficient  Atom+Function         Bfn.  Coefficient  Atom+Function  
  ----- ------------  ---------------      ----- ------------  ---------------
   173      0.223301  11 C  s                11      0.202202   2 C  s         
   174      0.189860  11 C  s               172      0.176977  11 C  s         
    56     -0.171948   5 C  s               374      0.155206  21 C  s         
   451     -0.154939  26 C  s         

 Vector   35  Occ=2.000000D+00  E=-1.026731D+00
              MO Center= -1.0D+00, -3.3D-01, -1.2D-01, r^2= 1.2D+01
   Bfn.  Coefficient  Atom+Function         Bfn.  Coefficient  Atom+Function  
  ----- ------------  ---------------      ----- ------------  ---------------
    11      0.245006   2 C  s               374     -0.173827  21 C  s         
   451      0.165241  26 C  s         

 Vector   36  Occ=2.000000D+00  E=-9.631447D-01
              MO Center=  3.5D-01, -1.8D+00,  1.1D-01, r^2= 8.3D+00
   Bfn.  Coefficient  Atom+Function         Bfn.  Coefficient  Atom+Function  
  ----- ------------  ---------------      ----- ------------  ---------------
   138      0.215832   9 C  s               145      0.202210   9 C  py        
   179      0.170740  11 C  py              172     -0.166983  11 C  s         
   173     -0.165696  11 C  s         

 Vector   37  Occ=2.000000D+00  E=-9.117549D-01
              MO Center=  6.5D-01,  2.3D+00, -3.6D-01, r^2= 5.2D+00
   Bfn.  Coefficient  Atom+Function         Bfn.  Coefficient  Atom+Function  
  ----- ------------  ---------------      ----- ------------  ---------------
   452      0.312444  26 C  s               380     -0.266024  21 C  px        
   408     -0.251743  23 C  s               458      0.172433  26 C  py        
   432     -0.171223  24 H  s         

 Vector   38  Occ=2.000000D+00  E=-8.648170D-01
              MO Center= -7.8D-01, -1.8D+00,  1.0D-01, r^2= 5.8D+00
   Bfn.  Coefficient  Atom+Function         Bfn.  Coefficient  Atom+Function  
  ----- ------------  ---------------      ----- ------------  ---------------
   107      0.277271   7 N  px               12     -0.214332   2 C  s         
    60     -0.204042   5 C  px              128      0.204275   8 H  s         
    54     -0.179963   5 C  s               105      0.180448   7 N  s         
   139     -0.180343   9 C  s                56      0.169836   5 C  s         
    57     -0.168241   5 C  px               74      0.163980   5 C  dxz       

 Vector   39  Occ=2.000000D+00  E=-8.418555D-01
              MO Center= -4.5D-01, -2.5D-02,  1.7D-01, r^2= 6.6D+00
   Bfn.  Coefficient  Atom+Function         Bfn.  Coefficient  Atom+Function  
  ----- ------------  ---------------      ----- ------------  ---------------
   291      0.236193  17 C  s               375      0.224722  21 C  s         
   380     -0.216761  21 C  px              341     -0.199510  19 N  s         
   343      0.194413  19 N  px              364     -0.187588  20 H  s         
   345      0.175019  19 N  pz              128      0.160552   8 H  s         
   623     -0.156991  34 N  py              290      0.155822  17 C  s         

 Vector   40  Occ=2.000000D+00  E=-8.219991D-01
              MO Center= -4.8D-01,  1.3D+00, -1.4D-02, r^2= 4.8D+00
   Bfn.  Coefficient  Atom+Function         Bfn.  Coefficient  Atom+Function  
  ----- ------------  ---------------      ----- ------------  ---------------
   399     -0.257481  22 H  s               381      0.255733  21 C  py        
   364      0.238816  20 H  s               341      0.206166  19 N  s         
   623     -0.182457  34 N  py              291     -0.177585  17 C  s         
   343     -0.170890  19 N  px              345     -0.168343  19 N  pz        
   569      0.165923  32 C  s         

 Vector   41  Occ=2.000000D+00  E=-8.118399D-01
              MO Center=  1.2D+00, -3.8D+00, -4.5D-01, r^2= 4.6D+00
   Bfn.  Coefficient  Atom+Function         Bfn.  Coefficient  Atom+Function  
  ----- ------------  ---------------      ----- ------------  ---------------
   216      0.289577  14 C  s               215      0.262781  14 C  s         
   266     -0.239998  16 O  s               241     -0.230527  15 O  s         
   144     -0.193247   9 C  px              243      0.175255  15 O  px        
   245      0.172606  15 O  pz              269      0.169019  16 O  py        
   173     -0.160799  11 C  s               176     -0.155704  11 C  py        

 Vector   42  Occ=2.000000D+00  E=-7.904839D-01
              MO Center=  9.5D-01,  4.6D+00, -2.8D-01, r^2= 3.4D+00
   Bfn.  Coefficient  Atom+Function         Bfn.  Coefficient  Atom+Function  
  ----- ------------  ---------------      ----- ------------  ---------------
   520     -0.271061  30 O  s               494      0.264161  29 C  s         
   524      0.254386  30 O  pz              495      0.237762  29 C  s         
   523     -0.209485  30 O  py              545     -0.207509  31 O  s         
   519     -0.170361  30 O  s               549     -0.169980  31 O  pz        

 Vector   43  Occ=2.000000D+00  E=-7.764825D-01
              MO Center= -7.2D-01,  1.5D+00,  2.6D-02, r^2= 9.4D+00
   Bfn.  Coefficient  Atom+Function         Bfn.  Coefficient  Atom+Function  
  ----- ------------  ---------------      ----- ------------  ---------------
   643      0.250397  35 H  s               623      0.222053  34 N  py        
   570     -0.212291  32 C  s               145      0.175652   9 C  py        
   572      0.162230  32 C  px              624      0.154906  34 N  pz        

 Vector   44  Occ=2.000000D+00  E=-7.483513D-01
              MO Center= -8.0D-02, -9.3D-01,  1.3D-01, r^2= 1.3D+01
   Bfn.  Coefficient  Atom+Function         Bfn.  Coefficient  Atom+Function  
  ----- ------------  ---------------      ----- ------------  ---------------
   145      0.264693   9 C  py              291     -0.262357  17 C  s         
   109     -0.205193   7 N  pz              139      0.193756   9 C  s         
   144      0.184181   9 C  px              622     -0.173796  34 N  px        
   128      0.156947   8 H  s               294     -0.151606  17 C  py        
   652      0.151278  36 H  s         

 Vector   45  Occ=2.000000D+00  E=-7.366231D-01
              MO Center=  4.7D-01, -1.8D+00,  5.4D-02, r^2= 9.7D+00
   Bfn.  Coefficient  Atom+Function         Bfn.  Coefficient  Atom+Function  
  ----- ------------  ---------------      ----- ------------  ---------------
   143      0.179458   9 C  pz               56      0.172652   5 C  s         
   162      0.170736  10 H  s               139      0.168911   9 C  s         
   108     -0.165488   7 N  py              196     -0.165041  12 H  s         
   220      0.158676  14 C  pz        

 Vector   46  Occ=2.000000D+00  E=-7.178457D-01
              MO Center=  1.9D-02, -9.7D-01, -1.1D-01, r^2= 1.6D+01
   Bfn.  Coefficient  Atom+Function         Bfn.  Coefficient  Atom+Function  
  ----- ------------  ---------------      ----- ------------  ---------------
   243      0.143820  15 O  px              622      0.140732  34 N  px        
   245      0.136621  15 O  pz              652     -0.136044  36 H  s         
   269     -0.135136  16 O  py              176      0.132046  11 C  py        
   220     -0.130349  14 C  pz        

 Vector   47  Occ=2.000000D+00  E=-7.153157D-01
              MO Center=  6.5D-01, -2.8D+00, -1.4D-01, r^2= 1.2D+01
   Bfn.  Coefficient  Atom+Function         Bfn.  Coefficient  Atom+Function  
  ----- ------------  ---------------      ----- ------------  ---------------
   219      0.228273  14 C  py              244      0.223315  15 O  py        
   266      0.184637  16 O  s               268      0.173890  16 O  px        
   270      0.161495  16 O  pz              247      0.154298  15 O  py        

 Vector   48  Occ=2.000000D+00  E=-7.122296D-01
              MO Center=  4.7D-01,  1.3D+00,  2.9D-02, r^2= 1.6D+01
   Bfn.  Coefficient  Atom+Function         Bfn.  Coefficient  Atom+Function  
  ----- ------------  ---------------      ----- ------------  ---------------
   524      0.222218  30 O  pz              498      0.209343  29 C  py        
   375     -0.162718  21 C  s               454      0.163039  26 C  px        

 Vector   49  Occ=2.000000D+00  E=-7.078120D-01
              MO Center=  2.2D-01,  8.1D-01, -3.1D-03, r^2= 1.4D+01
   Bfn.  Coefficient  Atom+Function         Bfn.  Coefficient  Atom+Function  
  ----- ------------  ---------------      ----- ------------  ---------------
   524      0.178454  30 O  pz              498      0.169408  29 C  py        

 Vector   50  Occ=2.000000D+00  E=-6.989546D-01
              MO Center= -3.5D-01, -8.8D-01,  1.2D-02, r^2= 1.5D+01
   Bfn.  Coefficient  Atom+Function         Bfn.  Coefficient  Atom+Function  
  ----- ------------  ---------------      ----- ------------  ---------------
    84      0.182682   6 O  pz              269     -0.158254  16 O  py        

 Vector   51  Occ=2.000000D+00  E=-6.861682D-01
              MO Center=  3.6D-01,  3.4D+00,  3.3D-01, r^2= 7.1D+00
   Bfn.  Coefficient  Atom+Function         Bfn.  Coefficient  Atom+Function  
  ----- ------------  ---------------      ----- ------------  ---------------
   499      0.253745  29 C  pz              523      0.240741  30 O  py        
   545     -0.225540  31 O  s               547      0.210693  31 O  px        
   549     -0.199958  31 O  pz              526      0.153512  30 O  py        

 Vector   52  Occ=2.000000D+00  E=-6.754719D-01
              MO Center= -2.2D-01,  7.3D-01,  1.0D-01, r^2= 9.6D+00
   Bfn.  Coefficient  Atom+Function         Bfn.  Coefficient  Atom+Function  
  ----- ------------  ---------------      ----- ------------  ---------------
   573      0.193939  32 C  py              344      0.173508  19 N  py        
   293      0.169284  17 C  px              597     -0.160665  33 O  px        
   652     -0.152571  36 H  s         

 Vector   53  Occ=2.000000D+00  E=-6.618354D-01
              MO Center=  6.1D-01,  6.5D-01,  2.2D-01, r^2= 1.1D+01
   Bfn.  Coefficient  Atom+Function         Bfn.  Coefficient  Atom+Function  
  ----- ------------  ---------------      ----- ------------  ---------------
   318     -0.191600  18 O  px              295      0.184400  17 C  pz        
   343     -0.161216  19 N  px              409      0.156985  23 C  s         
   549     -0.155885  31 O  pz        

 Vector   54  Occ=2.000000D+00  E=-6.497173D-01
              MO Center= -1.3D-01,  9.9D-01,  5.0D-03, r^2= 1.4D+01
   Bfn.  Coefficient  Atom+Function         Bfn.  Coefficient  Atom+Function  
  ----- ------------  ---------------      ----- ------------  ---------------
   399      0.219501  22 H  s               413     -0.153825  23 C  pz        

 Vector   55  Occ=2.000000D+00  E=-6.469625D-01
              MO Center= -5.4D-01, -1.2D+00, -1.4D-01, r^2= 1.5D+01
   Bfn.  Coefficient  Atom+Function         Bfn.  Coefficient  Atom+Function  
  ----- ------------  ---------------      ----- ------------  ---------------
    35      0.163015   3 H  s                58      0.156678   5 C  py        
    15      0.155692   2 C  py        

 Vector   56  Occ=2.000000D+00  E=-6.436989D-01
              MO Center= -2.5D-02, -1.9D-01, -1.8D-01, r^2= 1.4D+01
   Bfn.  Coefficient  Atom+Function         Bfn.  Coefficient  Atom+Function  
  ----- ------------  ---------------      ----- ------------  ---------------
   570      0.169542  32 C  s               163      0.158869  10 H  s         
   595     -0.152060  33 O  s         

 Vector   57  Occ=2.000000D+00  E=-6.361473D-01
              MO Center=  2.8D-01, -8.5D-01,  8.1D-02, r^2= 1.3D+01
   Bfn.  Coefficient  Atom+Function         Bfn.  Coefficient  Atom+Function  
  ----- ------------  ---------------      ----- ------------  ---------------
   139      0.222731   9 C  s               106      0.186061   7 N  s         
   205      0.165664  13 H  s               175      0.150761  11 C  px        

 Vector   58  Occ=2.000000D+00  E=-6.202272D-01
              MO Center= -1.4D-01,  1.3D-01, -8.4D-02, r^2= 1.4D+01
   Bfn.  Coefficient  Atom+Function         Bfn.  Coefficient  Atom+Function  
  ----- ------------  ---------------      ----- ------------  ---------------
   571      0.186530  32 C  s               375     -0.167203  21 C  s         
   399      0.167683  22 H  s                59      0.164093   5 C  pz        
   599      0.162185  33 O  pz              432      0.159696  24 H  s         
   205      0.154928  13 H  s               409      0.155493  23 C  s         
   433      0.153663  24 H  s         

 Vector   59  Occ=2.000000D+00  E=-6.143130D-01
              MO Center= -1.8D-01,  5.1D-01,  1.8D-01, r^2= 1.3D+01
   Bfn.  Coefficient  Atom+Function         Bfn.  Coefficient  Atom+Function  
  ----- ------------  ---------------      ----- ------------  ---------------
   173      0.168224  11 C  s                59      0.164810   5 C  pz        
   145      0.161185   9 C  py              433     -0.154134  24 H  s         
    84     -0.152353   6 O  pz        

 Vector   60  Occ=2.000000D+00  E=-6.064275D-01
              MO Center= -7.2D-01, -2.2D+00,  1.9D-01, r^2= 1.0D+01
   Bfn.  Coefficient  Atom+Function         Bfn.  Coefficient  Atom+Function  
  ----- ------------  ---------------      ----- ------------  ---------------
    16      0.221594   2 C  pz               82     -0.199239   6 O  px        
     2      0.183447   1 H  s               173      0.172253  11 C  s         
   206      0.170538  13 H  s                35     -0.169104   3 H  s         
    84      0.165999   6 O  pz              205      0.160858  13 H  s         
   270      0.160274  16 O  pz        

 Vector   61  Occ=2.000000D+00  E=-6.027209D-01
              MO Center=  4.9D-01, -6.7D-01,  1.0D-01, r^2= 1.1D+01
   Bfn.  Coefficient  Atom+Function         Bfn.  Coefficient  Atom+Function  
  ----- ------------  ---------------      ----- ------------  ---------------
   375      0.367541  21 C  s               410      0.213405  23 C  s         
   320     -0.195079  18 O  pz              571     -0.157032  32 C  s         
   409     -0.154861  23 C  s         

 Vector   62  Occ=2.000000D+00  E=-5.839530D-01
              MO Center=  3.2D-02,  2.3D+00, -4.3D-01, r^2= 8.7D+00
   Bfn.  Coefficient  Atom+Function         Bfn.  Coefficient  Atom+Function  
  ----- ------------  ---------------      ----- ------------  ---------------
   598      0.229842  33 O  py              399      0.215655  22 H  s         
   523      0.208433  30 O  py              572     -0.175162  32 C  px        
   412      0.167428  23 C  py              432     -0.164852  24 H  s         
   456     -0.151492  26 C  pz              574     -0.151603  32 C  pz        

 Vector   63  Occ=2.000000D+00  E=-5.815526D-01
              MO Center= -2.0D+00, -2.9D+00, -1.6D-01, r^2= 6.2D+00
   Bfn.  Coefficient  Atom+Function         Bfn.  Coefficient  Atom+Function  
  ----- ------------  ---------------      ----- ------------  ---------------
     1      0.303307   1 H  s                14     -0.296768   2 C  px        
     2      0.240504   1 H  s                44     -0.229933   4 H  s         
   206     -0.223043  13 H  s                15      0.169247   2 C  py        
   217     -0.167643  14 C  s               174      0.160122  11 C  s         

 Vector   64  Occ=2.000000D+00  E=-5.710451D-01
              MO Center=  5.2D-01,  1.4D+00, -2.2D-01, r^2= 1.0D+01
   Bfn.  Coefficient  Atom+Function         Bfn.  Coefficient  Atom+Function  
  ----- ------------  ---------------      ----- ------------  ---------------
   433      0.231319  24 H  s               409     -0.207680  23 C  s         
   375      0.201470  21 C  s               399      0.193221  22 H  s         
   456     -0.169582  26 C  pz              484      0.168683  28 H  s         
   475     -0.159219  27 H  s               476     -0.158129  27 H  s         
   412     -0.155880  23 C  py        

 Vector   65  Occ=2.000000D+00  E=-5.675057D-01
              MO Center= -3.1D-01, -9.8D-01, -1.7D-01, r^2= 1.2D+01
   Bfn.  Coefficient  Atom+Function         Bfn.  Coefficient  Atom+Function  
  ----- ------------  ---------------      ----- ------------  ---------------
   175     -0.176135  11 C  px              141      0.167183   9 C  px        

 Vector   66  Occ=2.000000D+00  E=-5.479236D-01
              MO Center= -3.9D-02,  1.6D+00, -2.7D-01, r^2= 9.6D+00
   Bfn.  Coefficient  Atom+Function         Bfn.  Coefficient  Atom+Function  
  ----- ------------  ---------------      ----- ------------  ---------------
   411      0.229126  23 C  px              454     -0.196089  26 C  px        
   173      0.177835  11 C  s               599     -0.175873  33 O  pz        
   433      0.168985  24 H  s               381     -0.159130  21 C  py        

 Vector   67  Occ=2.000000D+00  E=-5.445443D-01
              MO Center= -2.6D-01,  3.3D-01, -8.8D-02, r^2= 1.2D+01
   Bfn.  Coefficient  Atom+Function         Bfn.  Coefficient  Atom+Function  
  ----- ------------  ---------------      ----- ------------  ---------------
   413      0.220926  23 C  pz              399     -0.214858  22 H  s         
   139      0.201280   9 C  s               441     -0.198000  25 H  s         
   442     -0.180318  25 H  s               456     -0.164610  26 C  pz        
   458     -0.162577  26 C  py               83      0.160586   6 O  py        
   375      0.157884  21 C  s               475     -0.156584  27 H  s         

 Vector   68  Occ=2.000000D+00  E=-5.384610D-01
              MO Center=  3.2D-01, -2.0D-01,  2.6D-01, r^2= 1.0D+01
   Bfn.  Coefficient  Atom+Function         Bfn.  Coefficient  Atom+Function  
  ----- ------------  ---------------      ----- ------------  ---------------
   320      0.199769  18 O  pz              413      0.186218  23 C  pz        
   485      0.174959  28 H  s               379     -0.163255  21 C  pz        
   442     -0.163133  25 H  s               441     -0.156541  25 H  s         
   143     -0.150530   9 C  pz        

 Vector   69  Occ=2.000000D+00  E=-5.087658D-01
              MO Center=  1.3D+00, -3.6D+00, -2.3D-01, r^2= 6.1D+00
   Bfn.  Coefficient  Atom+Function         Bfn.  Coefficient  Atom+Function  
  ----- ------------  ---------------      ----- ------------  ---------------
   270      0.273699  16 O  pz              244      0.257180  15 O  py        
   269      0.251881  16 O  py              243      0.217604  15 O  px        
   273      0.213200  16 O  pz              176      0.206168  11 C  py        
   319      0.179238  18 O  py              247      0.177173  15 O  py        
   272      0.164782  16 O  py              174      0.154414  11 C  s         

 Vector   70  Occ=2.000000D+00  E=-5.082111D-01
              MO Center=  1.2D+00, -4.4D+00, -7.8D-01, r^2= 2.7D+00
   Bfn.  Coefficient  Atom+Function         Bfn.  Coefficient  Atom+Function  
  ----- ------------  ---------------      ----- ------------  ---------------
   244      0.455023  15 O  py              247      0.375194  15 O  py        
   270     -0.253232  16 O  pz              197      0.244977  12 H  s         
   268     -0.216970  16 O  px              173     -0.190868  11 C  s         
   273     -0.189468  16 O  pz              243     -0.184036  15 O  px        
   271     -0.156923  16 O  px              272     -0.154797  16 O  py        

 Vector   71  Occ=2.000000D+00  E=-4.890613D-01
              MO Center=  5.8D-01,  4.7D+00,  1.1D-01, r^2= 3.1D+00
   Bfn.  Coefficient  Atom+Function         Bfn.  Coefficient  Atom+Function  
  ----- ------------  ---------------      ----- ------------  ---------------
   548     -0.319745  31 O  py              523      0.302942  30 O  py        
   547     -0.278575  31 O  px              551     -0.273735  31 O  py        
   524      0.263345  30 O  pz              526      0.244835  30 O  py        
   442     -0.237344  25 H  s               409      0.225526  23 C  s         
   550     -0.206102  31 O  px              527      0.204147  30 O  pz        

 Vector   72  Occ=2.000000D+00  E=-4.763906D-01
              MO Center=  5.2D-01,  1.1D+00,  7.9D-01, r^2= 1.3D+01
   Bfn.  Coefficient  Atom+Function         Bfn.  Coefficient  Atom+Function  
  ----- ------------  ---------------      ----- ------------  ---------------
   319      0.305841  18 O  py              548      0.256428  31 O  py        
   322      0.248487  18 O  py              139      0.242940   9 C  s         
   551      0.200965  31 O  py              547     -0.195118  31 O  px        
   173     -0.187694  11 C  s               163     -0.174027  10 H  s         
   216      0.170586  14 C  s               433      0.158114  24 H  s         

 Vector   73  Occ=2.000000D+00  E=-4.718300D-01
              MO Center=  4.6D-01,  2.0D+00,  6.6D-01, r^2= 1.3D+01
   Bfn.  Coefficient  Atom+Function         Bfn.  Coefficient  Atom+Function  
  ----- ------------  ---------------      ----- ------------  ---------------
   548      0.288027  31 O  py              319     -0.244469  18 O  py        
   547     -0.232397  31 O  px              551      0.228147  31 O  py        
   173      0.208984  11 C  s               322     -0.195558  18 O  py        
   550     -0.178833  31 O  px              549     -0.162261  31 O  pz        
   106     -0.157508   7 N  s               216     -0.151680  14 C  s         

 Vector   74  Occ=2.000000D+00  E=-4.599926D-01
              MO Center= -1.9D+00, -2.0D+00,  9.6D-01, r^2= 3.4D+00
   Bfn.  Coefficient  Atom+Function         Bfn.  Coefficient  Atom+Function  
  ----- ------------  ---------------      ----- ------------  ---------------
    82      0.480720   6 O  px               85      0.383790   6 O  px        
    13     -0.244957   2 C  s               105     -0.213090   7 N  s         
    16      0.176464   2 C  pz               83      0.175746   6 O  py        
   173      0.164443  11 C  s                63     -0.161552   5 C  px        
    19      0.155476   2 C  pz              292      0.154666  17 C  s         

 Vector   75  Occ=2.000000D+00  E=-4.510303D-01
              MO Center= -1.2D+00,  1.2D+00, -4.1D-01, r^2= 4.8D+00
   Bfn.  Coefficient  Atom+Function         Bfn.  Coefficient  Atom+Function  
  ----- ------------  ---------------      ----- ------------  ---------------
   375      0.370968  21 C  s               597      0.353199  33 O  px        
   598     -0.303891  33 O  py              600      0.279290  33 O  px        
   410      0.261721  23 C  s               601     -0.250662  33 O  py        
   570     -0.233214  32 C  s               139     -0.228786   9 C  s         
   588      0.223779  32 C  dxy             571     -0.222474  32 C  s         

 Vector   76  Occ=2.000000D+00  E=-4.390843D-01
              MO Center= -5.7D-01,  2.9D-01,  1.8D-02, r^2= 7.2D+00
   Bfn.  Coefficient  Atom+Function         Bfn.  Coefficient  Atom+Function  
  ----- ------------  ---------------      ----- ------------  ---------------
   598      0.237825  33 O  py              343      0.206264  19 N  px        
   345     -0.190993  19 N  pz              601      0.191749  33 O  py        
   108      0.185741   7 N  py              346      0.182798  19 N  px        
   348     -0.182567  19 N  pz              111      0.167855   7 N  py        
   173     -0.167161  11 C  s               377     -0.164596  21 C  px        

 Vector   77  Occ=2.000000D+00  E=-4.254150D-01
              MO Center= -1.4D+00,  1.2D+00, -1.9D-01, r^2= 9.0D+00
   Bfn.  Coefficient  Atom+Function         Bfn.  Coefficient  Atom+Function  
  ----- ------------  ---------------      ----- ------------  ---------------
   624      0.312861  34 N  pz              599     -0.274645  33 O  pz        
   627      0.269421  34 N  pz              602     -0.215111  33 O  pz        
   350      0.178950  19 N  py              108     -0.162670   7 N  py        
   622     -0.163138  34 N  px              111     -0.154845   7 N  py        

 Vector   78  Occ=2.000000D+00  E=-4.186800D-01
              MO Center= -9.8D-02, -5.4D-01,  2.7D-01, r^2= 1.0D+01
   Bfn.  Coefficient  Atom+Function         Bfn.  Coefficient  Atom+Function  
  ----- ------------  ---------------      ----- ------------  ---------------
   173      0.238842  11 C  s               345      0.228503  19 N  pz        
   216     -0.193298  14 C  s               348      0.186878  19 N  pz        
   108      0.175807   7 N  py              318      0.173161  18 O  px        
    83     -0.170119   6 O  py              111      0.169172   7 N  py        
   319     -0.159511  18 O  py              624      0.153110  34 N  pz        

 Vector   79  Occ=2.000000D+00  E=-3.513403D-01
              MO Center=  1.1D+00,  9.7D-01, -4.0D-01, r^2= 2.4D+01
   Bfn.  Coefficient  Atom+Function         Bfn.  Coefficient  Atom+Function  
  ----- ------------  ---------------      ----- ------------  ---------------
   522      0.346085  30 O  px              525      0.281588  30 O  px        
   268      0.196042  16 O  px              245      0.189146  15 O  pz        
   269      0.171942  16 O  py              271      0.166189  16 O  px        
   173      0.156739  11 C  s         

 Vector   80  Occ=0.000000D+00  E=-2.870554D-01
              MO Center=  9.9D-01, -5.1D-02, -2.9D-01, r^2= 2.2D+01
   Bfn.  Coefficient  Atom+Function         Bfn.  Coefficient  Atom+Function  
  ----- ------------  ---------------      ----- ------------  ---------------
   522      0.293206  30 O  px              525      0.239252  30 O  px        
   173     -0.217148  11 C  s               268     -0.199958  16 O  px        
   245     -0.194640  15 O  pz              269     -0.182747  16 O  py        
   271     -0.172541  16 O  px        

 Vector   81  Occ=0.000000D+00  E= 2.274451D-02
              MO Center=  3.0D+00,  3.2D-01, -2.2D+00, r^2= 1.8D+01
   Bfn.  Coefficient  Atom+Function         Bfn.  Coefficient  Atom+Function  
  ----- ------------  ---------------      ----- ------------  ---------------
   217      2.800703  14 C  s               496      2.625759  29 C  s         
   198     -2.211452  12 H  s               434     -2.001918  24 H  s         
   571      2.002572  32 C  s               409      1.901475  23 C  s         
   453     -1.854036  26 C  s               486     -1.757672  28 H  s         
   383      1.686368  21 C  px              342     -1.489839  19 N  s         

 Vector   82  Occ=0.000000D+00  E= 3.451679D-02
              MO Center= -2.4D+00, -2.3D+00, -1.0D+00, r^2= 3.4D+01
   Bfn.  Coefficient  Atom+Function         Bfn.  Coefficient  Atom+Function  
  ----- ------------  ---------------      ----- ------------  ---------------
    63      3.103596   5 C  px               12     -2.207682   2 C  s         
   217     -2.178482  14 C  s               147      2.068782   9 C  px        
   486     -1.757079  28 H  s                37      1.667739   3 H  s         
    46      1.646886   4 H  s                 2      1.496565   1 H  s         
    36      1.449629   3 H  s               383      1.376394  21 C  px        

 Vector   83  Occ=0.000000D+00  E= 4.076639D-02
              MO Center=  1.1D+00, -1.1D+00,  3.6D-01, r^2= 3.5D+01
   Bfn.  Coefficient  Atom+Function         Bfn.  Coefficient  Atom+Function  
  ----- ------------  ---------------      ----- ------------  ---------------
   443     -2.688779  25 H  s               207      2.674582  13 H  s         
   164      2.026472  10 H  s               198     -1.870081  12 H  s         
   130     -1.821261   8 H  s               217     -1.731431  14 C  s         
   477      1.737708  27 H  s               183     -1.467132  11 C  pz        
   621     -1.446182  34 N  s                46      1.372588   4 H  s         

 Vector   84  Occ=0.000000D+00  E= 4.104539D-02
              MO Center= -3.0D-02,  2.6D+00, -7.9D-01, r^2= 3.8D+01
   Bfn.  Coefficient  Atom+Function         Bfn.  Coefficient  Atom+Function  
  ----- ------------  ---------------      ----- ------------  ---------------
   217      4.014373  14 C  s               496     -2.777640  29 C  s         
   621      2.288481  34 N  s               384     -2.187943  21 C  py        
   571     -2.098371  32 C  s               486      2.020729  28 H  s         
   292     -2.005795  17 C  s               654      2.000837  36 H  s         
   198     -1.697543  12 H  s               140     -1.626665   9 C  s         

 Vector   85  Occ=0.000000D+00  E= 4.629876D-02
              MO Center= -2.8D-01,  7.8D-01, -7.4D-02, r^2= 4.8D+01
   Bfn.  Coefficient  Atom+Function         Bfn.  Coefficient  Atom+Function  
  ----- ------------  ---------------      ----- ------------  ---------------
   486      2.977955  28 H  s               621     -2.615805  34 N  s         
   579      2.400073  32 C  py               63      2.187882   5 C  px        
   654     -2.140121  36 H  s               207     -2.126007  13 H  s         
   383     -2.025033  21 C  px              217      1.629356  14 C  s         
    46      1.546112   4 H  s               147      1.538655   9 C  px        

 Vector   86  Occ=0.000000D+00  E= 5.486884D-02
              MO Center=  3.9D-01, -8.8D-01,  2.3D-01, r^2= 3.8D+01
   Bfn.  Coefficient  Atom+Function         Bfn.  Coefficient  Atom+Function  
  ----- ------------  ---------------      ----- ------------  ---------------
   164      4.983948  10 H  s                56     -3.580427   5 C  s         
   443      3.496726  25 H  s                63     -3.274989   5 C  px        
   496     -3.198077  29 C  s               149     -3.002622   9 C  pz        
   174      2.712495  11 C  s               477     -2.371773  27 H  s         
   106      2.176390   7 N  s               417      2.131364  23 C  px        

 Vector   87  Occ=0.000000D+00  E= 5.627797D-02
              MO Center= -1.2D+00, -7.4D-01, -3.2D-01, r^2= 4.1D+01
   Bfn.  Coefficient  Atom+Function         Bfn.  Coefficient  Atom+Function  
  ----- ------------  ---------------      ----- ------------  ---------------
     3      4.432557   1 H  s               477     -4.303336  27 H  s         
   130     -4.237552   8 H  s               418      3.744726  23 C  py        
[...]
    45     -5.997783   4 H  s               350     -5.926470  19 N  py        
   383     -5.610144  21 C  px              139      4.737644   9 C  s         

 Vector  188  Occ=0.000000D+00  E= 4.238687D-01
              MO Center= -4.8D-02, -5.2D-01,  1.6D-01, r^2= 2.5D+01
   Bfn.  Coefficient  Atom+Function         Bfn.  Coefficient  Atom+Function  
  ----- ------------  ---------------      ----- ------------  ---------------
   384    -13.181959  21 C  py              106     12.578110   7 N  s         
   149     10.501878   9 C  pz              383      9.360696  21 C  px        
   434      8.771413  24 H  s                13      8.190805   2 C  s         
   148      8.119397   9 C  py              342     -7.569260  19 N  s         
   621      7.606291  34 N  s               182     -7.389951  11 C  py        

 Vector  189  Occ=0.000000D+00  E= 4.254136D-01
              MO Center= -3.9D-01, -6.7D-02,  6.7D-02, r^2= 2.1D+01
   Bfn.  Coefficient  Atom+Function         Bfn.  Coefficient  Atom+Function  
  ----- ------------  ---------------      ----- ------------  ---------------
    56     15.210111   5 C  s               106    -13.544867   7 N  s         
   217    -11.675022  14 C  s               113     10.460922   7 N  px        
   621    -10.029637  34 N  s                63      9.500569   5 C  px        
   453     -9.167479  26 C  s               571      9.036709  32 C  s         
   342     -7.704398  19 N  s               300      6.638088  17 C  py        

 Vector  190  Occ=0.000000D+00  E= 4.312834D-01
              MO Center=  6.6D-01, -2.2D+00,  1.7D-01, r^2= 2.2D+01
   Bfn.  Coefficient  Atom+Function         Bfn.  Coefficient  Atom+Function  
  ----- ------------  ---------------      ----- ------------  ---------------
    13      8.483215   2 C  s               149     -7.322368   9 C  pz        
   267     -6.350289  16 O  s               621      6.275713  34 N  s         
   113      6.188037   7 N  px              366     -5.892008  20 H  s         
   183      5.700254  11 C  pz               63      5.398534   5 C  px        
   217      5.290480  14 C  s               140     -4.953965   9 C  s         

 Vector  191  Occ=0.000000D+00  E= 4.334915D-01
              MO Center=  4.5D-01,  1.7D+00,  7.0D-02, r^2= 2.0D+01
   Bfn.  Coefficient  Atom+Function         Bfn.  Coefficient  Atom+Function  
  ----- ------------  ---------------      ----- ------------  ---------------
   384     10.475358  21 C  py              453     -8.049058  26 C  s         
    13      6.927215   2 C  s               410      6.934654  23 C  s         
   106      6.801536   7 N  s               385      6.149869  21 C  pz        
   292     -5.335250  17 C  s               400     -5.201895  22 H  s         
   462     -4.841162  26 C  pz              383      4.798035  21 C  px        

 Vector  192  Occ=0.000000D+00  E= 4.371386D-01
              MO Center= -3.2D-02,  1.6D-01, -1.9D-01, r^2= 2.4D+01
   Bfn.  Coefficient  Atom+Function         Bfn.  Coefficient  Atom+Function  
  ----- ------------  ---------------      ----- ------------  ---------------
   496     17.283684  29 C  s               106    -12.224230   7 N  s         
   149     -7.765981   9 C  pz              385      6.086459  21 C  pz        
   292      5.945646  17 C  s               419     -5.491153  23 C  pz        
    56      5.338221   5 C  s               174      4.832881  11 C  s         
   217     -4.704368  14 C  s               300     -4.628367  17 C  py        

 Vector  193  Occ=0.000000D+00  E= 4.399242D-01
              MO Center= -6.7D-01, -5.4D-01, -3.3D-01, r^2= 2.5D+01
   Bfn.  Coefficient  Atom+Function         Bfn.  Coefficient  Atom+Function  
  ----- ------------  ---------------      ----- ------------  ---------------
   496     12.600000  29 C  s               621     10.771761  34 N  s         
    56      9.057233   5 C  s               217     -8.621487  14 C  s         
   147      8.321609   9 C  px              292     -7.933890  17 C  s         
   148     -7.705992   9 C  py               13      7.265064   2 C  s         
   113      7.166835   7 N  px              299     -7.045312  17 C  px        

 Vector  194  Occ=0.000000D+00  E= 4.412218D-01
              MO Center=  4.4D-01,  9.5D-01,  5.2D-02, r^2= 2.2D+01
   Bfn.  Coefficient  Atom+Function         Bfn.  Coefficient  Atom+Function  
  ----- ------------  ---------------      ----- ------------  ---------------
   496     12.269799  29 C  s                13    -10.580682   2 C  s         
   148     -8.451348   9 C  py              299     -7.546697  17 C  px        
    63     -6.840719   5 C  px              462     -6.541051  26 C  pz        
   174     -6.147977  11 C  s               521     -5.928692  30 O  s         
   621      5.196598  34 N  s               477      5.016496  27 H  s         

 Vector  195  Occ=0.000000D+00  E= 4.426342D-01
              MO Center= -4.3D-03,  2.8D-01, -1.7D-01, r^2= 2.2D+01
   Bfn.  Coefficient  Atom+Function         Bfn.  Coefficient  Atom+Function  
  ----- ------------  ---------------      ----- ------------  ---------------
   496     16.894941  29 C  s               384    -13.152129  21 C  py        
   300    -11.109616  17 C  py              410    -10.547246  23 C  s         
   385      9.634388  21 C  pz              217     -9.309909  14 C  s         
    13     -9.157885   2 C  s               366     -8.495075  20 H  s         
   621      8.513691  34 N  s               419     -8.138976  23 C  pz        

 Vector  196  Occ=0.000000D+00  E= 4.448712D-01
              MO Center=  1.1D-02, -7.4D-01,  1.2D-01, r^2= 2.4D+01
   Bfn.  Coefficient  Atom+Function         Bfn.  Coefficient  Atom+Function  
  ----- ------------  ---------------      ----- ------------  ---------------
   453    -11.424443  26 C  s               300     10.467572  17 C  py        
   147      8.977392   9 C  px               13      8.636395   2 C  s         
   174     -8.300623  11 C  s               217     -8.049055  14 C  s         
   350     -7.851234  19 N  py              410      7.708197  23 C  s         
   183     -7.010696  11 C  pz              299      6.148592  17 C  px        

 Vector  197  Occ=0.000000D+00  E= 4.512177D-01
              MO Center=  4.0D-02,  8.0D-01, -6.8D-01, r^2= 2.2D+01
   Bfn.  Coefficient  Atom+Function         Bfn.  Coefficient  Atom+Function  
  ----- ------------  ---------------      ----- ------------  ---------------
   174     16.797063  11 C  s               453     14.756890  26 C  s         
    13     12.544781   2 C  s               496    -11.935473  29 C  s         
   217    -10.466329  14 C  s               106     -9.534555   7 N  s         
   114     -7.978921   7 N  py               56     -7.899376   5 C  s         
   410     -7.199346  23 C  s               442      6.570383  25 H  s         

 Vector  198  Occ=0.000000D+00  E= 4.528967D-01
              MO Center= -1.3D+00, -1.6D+00, -4.4D-01, r^2= 2.2D+01
   Bfn.  Coefficient  Atom+Function         Bfn.  Coefficient  Atom+Function  
  ----- ------------  ---------------      ----- ------------  ---------------
    56     11.291897   5 C  s               217     -9.461549  14 C  s         
    13     -8.122921   2 C  s                36      7.667520   3 H  s         
   183     -6.174261  11 C  pz              140      5.986335   9 C  s         
   198     -5.722630  12 H  s                21     -4.914016   2 C  py        
   148     -4.906176   9 C  py               37      4.513999   3 H  s         

 Vector  199  Occ=0.000000D+00  E= 4.632914D-01
              MO Center=  6.0D-02,  1.2D+00, -9.1D-02, r^2= 2.2D+01
   Bfn.  Coefficient  Atom+Function         Bfn.  Coefficient  Atom+Function  
  ----- ------------  ---------------      ----- ------------  ---------------
   496     24.266958  29 C  s               453    -19.082434  26 C  s         
   342     11.911301  19 N  s               384      9.970084  21 C  py        
   300     -9.536129  17 C  py              147      8.639004   9 C  px        
   174     -8.406321  11 C  s                63      6.807538   5 C  px        
   140     -6.416242   9 C  s                56      6.333165   5 C  s         

 Vector  200  Occ=0.000000D+00  E= 4.659193D-01
              MO Center= -2.7D-01, -4.9D-01, -4.8D-01, r^2= 2.2D+01
   Bfn.  Coefficient  Atom+Function         Bfn.  Coefficient  Atom+Function  
  ----- ------------  ---------------      ----- ------------  ---------------
   217     23.270105  14 C  s               174    -10.913776  11 C  s         
   384     -8.193727  21 C  py              106      8.098383   7 N  s         
   496      7.738561  29 C  s               399      7.506176  22 H  s         
   342     -6.805916  19 N  s                56     -5.674731   5 C  s         
   182      5.111303  11 C  py              242     -5.105480  15 O  s         

 Vector  201  Occ=0.000000D+00  E= 4.673022D-01
              MO Center=  7.4D-02,  2.1D-01,  1.5D-01, r^2= 2.2D+01
   Bfn.  Coefficient  Atom+Function         Bfn.  Coefficient  Atom+Function  
  ----- ------------  ---------------      ----- ------------  ---------------
    13     18.566766   2 C  s               148     11.310701   9 C  py        
    56     -9.788270   5 C  s               292     -9.241913  17 C  s         
    63      9.187241   5 C  px              496     -8.230439  29 C  s         
   217      8.176950  14 C  s               174      7.893936  11 C  s         
   453      7.673380  26 C  s               342     -6.784415  19 N  s         

 Vector  202  Occ=0.000000D+00  E= 4.698673D-01
              MO Center=  1.5D-02, -8.0D-01, -3.5D-01, r^2= 2.0D+01
   Bfn.  Coefficient  Atom+Function         Bfn.  Coefficient  Atom+Function  
  ----- ------------  ---------------      ----- ------------  ---------------
   174     19.349294  11 C  s                56    -15.156992   5 C  s         
   384     12.578765  21 C  py              453    -12.606935  26 C  s         
   147     -8.077112   9 C  px               13      7.538615   2 C  s         
   148      7.376159   9 C  py              409     -7.201814  23 C  s         
   242     -6.457693  15 O  s               300      6.336178  17 C  py        

 Vector  203  Occ=0.000000D+00  E= 4.762146D-01
              MO Center= -2.1D-01, -6.0D-01,  4.4D-02, r^2= 2.3D+01
   Bfn.  Coefficient  Atom+Function         Bfn.  Coefficient  Atom+Function  
  ----- ------------  ---------------      ----- ------------  ---------------
    56    -31.675928   5 C  s                13     30.024837   2 C  s         
   174     21.026871  11 C  s               292    -17.456961  17 C  s         
   342     13.519352  19 N  s                63     13.218256   5 C  px        
   384     12.663595  21 C  py              496     12.709369  29 C  s         
    12     12.128972   2 C  s               140    -10.924109   9 C  s         

 Vector  204  Occ=0.000000D+00  E= 4.836944D-01
              MO Center=  6.4D-01,  8.2D-02, -7.3D-02, r^2= 2.2D+01
   Bfn.  Coefficient  Atom+Function         Bfn.  Coefficient  Atom+Function  
  ----- ------------  ---------------      ----- ------------  ---------------
   217     20.786712  14 C  s               496     18.021736  29 C  s         
   453    -15.562152  26 C  s                13     12.097824   2 C  s         
   350      9.944072  19 N  py              409      9.104880  23 C  s         
   174     -8.684278  11 C  s               621      7.945797  34 N  s         
   375     -7.274588  21 C  s               106      6.453959   7 N  s         

 Vector  205  Occ=0.000000D+00  E= 4.878721D-01
              MO Center=  6.2D-01,  1.4D+00,  2.2D-01, r^2= 2.1D+01
   Bfn.  Coefficient  Atom+Function         Bfn.  Coefficient  Atom+Function  
  ----- ------------  ---------------      ----- ------------  ---------------
   453     38.530680  26 C  s               300    -20.194067  17 C  py        
   106    -19.792126   7 N  s               496    -12.335921  29 C  s         
   149    -11.794317   9 C  pz              476    -11.188902  27 H  s         
   485    -10.864887  28 H  s               452      9.204232  26 C  s         
   301      8.046529  17 C  pz              383     -7.491613  21 C  px        

 Vector  206  Occ=0.000000D+00  E= 4.918557D-01
              MO Center= -3.7D-01,  1.6D+00, -2.1D-01, r^2= 2.0D+01
   Bfn.  Coefficient  Atom+Function         Bfn.  Coefficient  Atom+Function  
  ----- ------------  ---------------      ----- ------------  ---------------
    56     19.481339   5 C  s               106    -11.206768   7 N  s         
   342    -10.863165  19 N  s               496     10.553840  29 C  s         
    13    -10.347964   2 C  s               300    -10.355775  17 C  py        
   292      9.401553  17 C  s                12     -8.135978   2 C  s         
   453     -8.128473  26 C  s               113      7.586618   7 N  px        

 Vector  207  Occ=0.000000D+00  E= 4.995614D-01
              MO Center= -9.7D-02,  1.0D+00,  4.7D-02, r^2= 2.2D+01
   Bfn.  Coefficient  Atom+Function         Bfn.  Coefficient  Atom+Function  
  ----- ------------  ---------------      ----- ------------  ---------------
   496     19.909643  29 C  s                13     17.551325   2 C  s         
   217    -10.239526  14 C  s                63      8.912693   5 C  px        
   292     -8.276122  17 C  s               173      8.218246  11 C  s         
   174      8.068874  11 C  s               571     -7.286559  32 C  s         
   376     -6.787624  21 C  s                56     -6.716110   5 C  s         

 Vector  208  Occ=0.000000D+00  E= 5.023506D-01
              MO Center= -5.1D-01,  4.4D-01,  1.3D-01, r^2= 2.0D+01
   Bfn.  Coefficient  Atom+Function         Bfn.  Coefficient  Atom+Function  
  ----- ------------  ---------------      ----- ------------  ---------------
    56     17.354498   5 C  s               174    -15.587734  11 C  s         
   410      8.536454  23 C  s               106     -7.999868   7 N  s         
   384     -7.740627  21 C  py              147      7.610898   9 C  px        
   350     -6.927210  19 N  py              148     -6.602560   9 C  py        
   496      6.573925  29 C  s               113      6.450118   7 N  px        


 center of mass
 --------------
 x =   0.01705907 y =  -0.00029862 z =   0.02022261

 moments of inertia (a.u.)
 ------------------
       11946.923698063749          -0.000000000000           0.000000000000
          -0.000000000000        3409.497559466689           0.000000000001
           0.000000000000           0.000000000001       13843.999723988789

  Mulliken analysis of the total density
  --------------------------------------

    Atom       Charge   Shell Charges
 -----------   ------   -------------------------------------------------------
    1 H    1     0.96   0.76  0.21  0.01  0.03 -0.06
    2 C    6     6.45   2.01  0.66  0.32  0.21  2.07  1.02 -0.01  0.06  0.11
    3 H    1     0.81   0.76  0.08  0.01  0.03 -0.06
    4 H    1     0.84   0.76  0.10  0.00  0.03 -0.06
    5 C    6     5.14   2.01  0.68  0.11 -0.10  1.91  0.39 -0.04  0.24 -0.06
    6 O    8     8.70   2.01  0.82  1.00  0.16  2.77  1.81  0.13  0.01 -0.02
    7 N    7     7.45   2.01  0.73  0.78 -0.13  2.43  1.43  0.13  0.05  0.02
    8 H    1     0.89   0.73  0.20 -0.00  0.06 -0.09
    9 C    6     6.53   2.01  0.67  0.21 -0.04  1.98  1.28  0.12  0.13  0.17
   10 H    1     1.10   0.77  0.29 -0.01  0.03  0.03
   11 C    6     6.56   2.01  0.67  0.70  0.03  2.03  0.81 -0.00  0.08  0.23
   12 H    1     0.79   0.77  0.04  0.01  0.03 -0.05
   13 H    1     0.88   0.76  0.15  0.00  0.03 -0.07
   14 C    6     4.41   2.01  0.68  0.08 -0.24  1.87 -0.01 -0.01  0.26 -0.24
   15 O    8     8.64   2.01  0.83  1.01  0.16  2.73  1.80  0.12  0.01 -0.03
   16 O    8     8.52   2.01  0.84  1.01  0.15  2.71  1.71  0.11  0.01 -0.03
   17 C    6     4.40   2.01  0.68 -0.00 -0.07  1.88 -0.01  0.02  0.23 -0.34
   18 O    8     8.80   2.01  0.82  1.03  0.19  2.77  1.84  0.14  0.01 -0.01
   19 N    7     7.43   2.01  0.72  0.84 -0.12  2.43  1.45  0.00  0.05  0.04
   20 H    1     0.89   0.74  0.22 -0.06  0.06 -0.07
   21 C    6     6.02   2.01  0.66  0.08 -0.00  1.99  1.20 -0.03  0.13 -0.02
   22 H    1     1.31   0.77  0.47 -0.01  0.03  0.05
   23 C    6     5.68   2.01  0.66  0.14 -0.05  2.02  0.74  0.03  0.09  0.04
   24 H    1     1.11   0.77  0.43 -0.04  0.03 -0.07
   25 H    1     1.04   0.78  0.30 -0.01  0.03 -0.06
   26 C    6     6.53   2.01  0.67  0.63  0.04  2.02  0.89  0.07  0.09  0.12
   27 H    1     0.88   0.76  0.12  0.01  0.03 -0.04
   28 H    1     0.94   0.77  0.21 -0.00  0.03 -0.07
   29 C    6     4.42   2.01  0.69  0.06 -0.20  1.86 -0.01 -0.01  0.26 -0.23
   30 O    8     8.53   2.01  0.84  1.02  0.16  2.70  1.72  0.11  0.01 -0.03
   31 O    8     8.79   2.01  0.83  1.01  0.20  2.76  1.85  0.15  0.01 -0.02
   32 C    6     4.63   2.01  0.68  0.01  0.14  1.89 -0.16 -0.01  0.23 -0.15
   33 O    8     8.83   2.01  0.82  1.04  0.16  2.79  1.86  0.14  0.01  0.00
   34 N    7     7.20   2.01  0.72  0.84 -0.20  2.46  1.26  0.08  0.04 -0.02
   35 H    1     0.88   0.72  0.21 -0.01  0.06 -0.10
   36 H    1     1.00   0.76  0.23 -0.01  0.05 -0.02

       Multipole analysis of the density wrt the origin
       ------------------------------------------------

     L   x y z        total         open         nuclear
     -   - - -        -----         ----         -------
     0   0 0 0     -0.000000      0.000000    158.000000

     1   1 0 0      0.518871      0.000000      0.000000
     1   0 1 0     -0.361609      0.000000      0.000000
     1   0 0 1     -1.040542      0.000000     -0.000000

     2   2 0 0    -89.929666      0.000000   1451.718903
     2   1 1 0      6.758445      0.000000     46.526062
     2   1 0 1     -0.731404      0.000000      7.832369
     2   0 2 0   -114.096111      0.000000   5813.264303
     2   0 1 1     -1.061538      0.000000      2.916702
     2   0 0 2   -101.688376      0.000000    403.335852

 ------------------------------------------------------------------------
 scf energy failed                                                                                  0
 ------------------------------------------------------------------------
 ------------------------------------------------------------------------
  current input line : 
    51: task scf energy
 ------------------------------------------------------------------------
 ------------------------------------------------------------------------
 This type of error is most commonly associated with calculations not reaching convergence criteria
 ------------------------------------------------------------------------
 For more information see the NWChem manual at https://nwchemgit.github.io


 For further details see manual section:                                                                                                                                                                                                                                                                
0:scf energy failed:Received an Error in Communication
--------------------------------------------------------------------------
MPI_ABORT was invoked on rank 0 in communicator MPI COMMUNICATOR 3 DUP FROM 0
with errorcode -1.

NOTE: invoking MPI_ABORT causes Open MPI to kill all MPI processes.
You may or may not see output from other processes, depending on
exactly when Open MPI kills them.
--------------------------------------------------------------------------
slurmstepd: error: *** STEP 6619389.112 ON nova21-swift-3 CANCELLED AT 2025-07-11T10:01:42 ***
srun: Job step aborted: Waiting up to 32 seconds for job step to finish.
srun: error: nova21-swift-3: task 0: Exited with exit code 255
srun: error: nova21-swift-3: tasks 1-7: Killed
