export TMOUT=5400
export TMPDIR=/tmp
export PTMPDIR=/tmp/ptmp
 argument  1 = inputs/ASP_ALA_2.nw



============================== echo of input deck ==============================
start ASP_ALA_2
geometry
H          9.01400        8.77500        6.82300
C          8.06500        8.27100        6.99400
H          7.69800        8.50100        7.99200
H          8.19000        7.19600        6.88000
C          7.06300        8.75900        5.97500
O          7.39600        9.59200        5.14400
N          5.84500        8.23800        6.06600
H          5.64700        7.59500        6.81700
C          4.70200        8.55500        5.20000
H          4.77200        9.59400        4.87300
C          4.74200        7.65300        3.94900
H          5.66800        7.83600        3.40300
H          4.73400        6.60800        4.26600
C          3.56000        7.90700        3.00700
O          3.18100        9.09000        2.85000
O          2.95100        6.91400        2.55900
C          3.37700        8.38500        5.97800
O          3.35100        7.75800        7.04000
N          2.28000        8.94100        5.46000
H          2.37900        9.35800        4.53400
C          0.92400        8.75400        5.97600
H          0.96300        8.75900        7.06700
C          0.08400        9.95100        5.51500
H          0.03300        9.97000        4.42500
H         -0.92500        9.86600        5.92000
H          0.53400       10.87800        5.87100
C          0.26800        7.41800        5.55400
O         -0.72300        7.00500        6.15000
N          0.76700        6.72300        4.53700
H          1.55900        7.06300        4.00000
H          0.32600        5.85800        4.28200
end

basis
 * library aug-cc-pvdz
end

echo

scf
 direct
end

task scf energy
================================================================================


                                         
                                         


             Northwest Computational Chemistry Package (NWChem) 7.2.0
             --------------------------------------------------------


                    Environmental Molecular Sciences Laboratory
                       Pacific Northwest National Laboratory
                                Richland, WA 99352

                              Copyright (c) 1994-2022
                       Pacific Northwest National Laboratory
                            Battelle Memorial Institute

             NWChem is an open-source computational chemistry package
                        distributed under the terms of the
                      Educational Community License (ECL) 2.0
             A copy of the license is included with this distribution
                              in the LICENSE.TXT file

                                  ACKNOWLEDGMENT
                                  --------------

            This software and its documentation were developed at the
            EMSL at Pacific Northwest National Laboratory, a multiprogram
            national laboratory, operated for the U.S. Department of Energy
            by Battelle under Contract Number DE-AC05-76RL01830. Support
            for this work was provided by the Department of Energy Office
            of Biological and Environmental Research, Office of Basic
            Energy Sciences, and the Office of Advanced Scientific Computing.


           Job information
           ---------------

    hostname        = nova21-swift-1
    program         = /opt/rit/el9/20230413/app/linux-rhel9-x86_64_v3/gcc-11.2.1/nwchem-7.2.0-oxtctbuhfuzyfaoziquq6bki22grib3g/bin/nwchem
    date            = Thu Jul 10 09:26:34 2025

    compiled        = Wed_May_17_23:46:39_2023
    source          = /tmp/root/spack-stage/spack-stage-nwchem-7.2.0-oxtctbuhfuzyfaoziquq6bki22grib3g/spack-src
    nwchem branch   = 7.2.0
    nwchem revision = d0d141fd
    ga revision     = 5.8.0
    use scalapack   = T
    input           = inputs/ASP_ALA_2.nw
    prefix          = ASP_ALA_2.
    data base       = ./ASP_ALA_2.db
    status          = startup
    nproc           =        8
    time left       =     -1s



           Memory information
           ------------------

    heap     =   26214396 doubles =    200.0 Mbytes
    stack    =   26214401 doubles =    200.0 Mbytes
    global   =   52428800 doubles =    400.0 Mbytes (distinct from heap & stack)
    total    =  104857597 doubles =    800.0 Mbytes
    verify   = yes
    hardfail = no 


           Directory information
           ---------------------

  0 permanent = .
  0 scratch   = .




                                NWChem Input Module
                                -------------------



 Scaling coordinates for geometry "geometry" by  1.889725989
 (inverse scale =  0.529177249)

 C1  symmetry detected

          ------
          auto-z
          ------
  no constraints, skipping    0.0000000000000000     
  no constraints, skipping    0.0000000000000000     


                             Geometry "geometry" -> ""
                             -------------------------

 Output coordinates in angstroms (scale by  1.889725989 to convert to a.u.)

  No.       Tag          Charge          X              Y              Z
 ---- ---------------- ---------- -------------- -------------- --------------
    1 H                    1.0000     1.15176487     5.75226306    -0.27165329
    2 C                    6.0000     1.34995093     4.76807074    -0.69111220
    3 H                    1.0000     2.39898351     4.51274595    -0.55719840
    4 H                    1.0000     1.09447308     4.75727463    -1.74887423
    5 C                    6.0000     0.49834129     3.75023830     0.02950360
    6 O                    8.0000    -0.25300327     4.10934739     0.92497052
    7 N                    7.0000     0.64110875     2.49128920    -0.36787611
    8 H                    1.0000     1.32366380     2.28144385    -1.07973110
    9 C                    6.0000    -0.06670404     1.32640375     0.17887515
   10 H                    1.0000    -0.26991872     1.49016685     1.23870317
   11 C                    6.0000    -1.41629889     1.15917276    -0.54970741
   12 H                    1.0000    -2.02186249     2.05270272    -0.39485931
   13 H                    1.0000    -1.22961505     1.05526836    -1.62065606
   14 C                    6.0000    -2.20314400    -0.05783764    -0.05094449
   15 O                    8.0000    -2.17799350    -0.30791676     1.17567969
   16 O                    8.0000    -2.70851941    -0.81279130    -0.90667498
   17 C                    6.0000     0.80774980     0.05830180     0.04827298
   18 O                    8.0000     1.78308164     0.04586460    -0.70685755
   19 N                    7.0000     0.46845744    -1.00490472     0.77994339
   20 H                    1.0000    -0.40505790    -0.93361834     1.30249023
   21 C                    6.0000     1.08495774    -2.32697748     0.67034414
   22 H                    1.0000     2.15969865    -2.19907599     0.52751491
   23 C                    6.0000     0.85549831    -3.05646782     1.99929944
   24 H                    1.0000    -0.21418598    -3.19336979     2.16691621
   25 H                    1.0000     1.34162113    -4.03220221     1.96834780
   26 H                    1.0000     1.27712808    -2.47407220     2.81881678
   27 C                    6.0000     0.56798645    -3.16630613    -0.52195788
   28 O                    8.0000     1.20114518    -4.14691024    -0.90326039
   29 N                    7.0000    -0.56905056    -2.83604693    -1.12560570
   30 H                    1.0000    -1.13380679    -2.05613210    -0.80309019
   31 H                    1.0000    -0.88420615    -3.39409689    -1.89825582

      Atomic Mass 
      ----------- 

      H                  1.007825
      C                 12.000000
      O                 15.994910
      N                 14.003070


 Effective nuclear repulsion energy (a.u.)    1285.4067901706

            Nuclear Dipole moment (a.u.) 
            ----------------------------
        X                 Y               Z
 ---------------- ---------------- ----------------
     0.0000000000     0.0000000000    -0.0000000000



                                Z-matrix (autoz)
                                -------- 

 Units are Angstrom for bonds and degrees for angles

      Type          Name      I     J     K     L     M      Value
      ----------- --------  ----- ----- ----- ----- ----- ----------
    1 Stretch                  1     2                       1.08805
    2 Stretch                  2     3                       1.08793
    3 Stretch                  2     4                       1.08823
    4 Stretch                  2     5                       1.51014
    5 Stretch                  5     6                       1.22284
    6 Stretch                  5     7                       1.32787
    7 Stretch                  7     8                       1.00829
    8 Stretch                  7     9                       1.46864
    9 Stretch                  9    10                       1.09149
   10 Stretch                  9    11                       1.54279
   11 Stretch                  9    17                       1.54590
   12 Stretch                 11    12                       1.09045
   13 Stretch                 11    13                       1.09205
   14 Stretch                 11    14                       1.53265
   15 Stretch                 14    15                       1.25211
   16 Stretch                 14    16                       1.24805
   17 Stretch                 17    18                       1.23355
   18 Stretch                 17    19                       1.33449
   19 Stretch                 19    20                       1.02038
   20 Stretch                 19    21                       1.46286
   21 Stretch                 21    22                       1.09171
   22 Stretch                 21    23                       1.53327
   23 Stretch                 21    27                       1.54703
   24 Stretch                 23    24                       1.09136
   25 Stretch                 23    25                       1.09056
   26 Stretch                 23    26                       1.09021
   27 Stretch                 27    28                       1.22795
   28 Stretch                 27    29                       1.32903
   29 Stretch                 29    30                       1.01550
   30 Stretch                 29    31                       1.00386
   31 Bend                     1     2     3               109.90541
   32 Bend                     1     2     4               109.93366
   33 Bend                     1     2     5               108.84348
   34 Bend                     2     5     6               119.86751
   35 Bend                     2     5     7               115.82235
   36 Bend                     3     2     4               110.10163
   37 Bend                     3     2     5               109.07765
   38 Bend                     4     2     5               108.95035
   39 Bend                     5     7     8               118.77537
   40 Bend                     5     7     9               126.07027
   41 Bend                     6     5     7               124.30716
   42 Bend                     7     9    10               109.40303
   43 Bend                     7     9    11               109.37591
   44 Bend                     7     9    17               110.27756
   45 Bend                     8     7     9               115.08812
   46 Bend                     9    11    12               109.26332
   47 Bend                     9    11    13               108.89871
   48 Bend                     9    11    14               112.42602
   49 Bend                     9    17    18               120.48001
   50 Bend                     9    17    19               117.60705
   51 Bend                    10     9    11               108.17663
   52 Bend                    10     9    17               108.08467
   53 Bend                    11     9    17               111.46984
   54 Bend                    11    14    15               117.84520
   55 Bend                    11    14    16               117.71596
   56 Bend                    12    11    13               108.18925
   57 Bend                    12    11    14               108.62350
   58 Bend                    13    11    14               109.35065
   59 Bend                    15    14    16               123.98772
   60 Bend                    17    19    20               116.28097
   61 Bend                    17    19    21               124.87648
   62 Bend                    18    17    19               121.91269
   63 Bend                    19    21    22               108.59067
   64 Bend                    19    21    23               107.57640
   65 Bend                    19    21    27               114.03137
   66 Bend                    20    19    21               117.53472
   67 Bend                    21    23    24               109.84534
   68 Bend                    21    23    25               109.53417
   69 Bend                    21    23    26               109.84627
   70 Bend                    21    27    28               120.01776
   71 Bend                    21    27    29               120.07481
   72 Bend                    22    21    23               108.44924
   73 Bend                    22    21    27               106.96014
   74 Bend                    23    21    27               111.09191
   75 Bend                    24    23    25               109.20969
   76 Bend                    24    23    26               109.30647
   77 Bend                    25    23    26               109.08062
   78 Bend                    27    29    30               121.49307
   79 Bend                    27    29    31               118.68817
   80 Bend                    28    27    29               119.90335
   81 Bend                    30    29    31               119.78800
   82 Torsion                  1     2     5     6          -0.01822
   83 Torsion                  1     2     5     7        -179.41731
   84 Torsion                  2     5     7     8           2.80534
   85 Torsion                  2     5     7     9         179.69033
   86 Torsion                  3     2     5     6         119.89476
   87 Torsion                  3     2     5     7         -59.50433
   88 Torsion                  4     2     5     6        -119.89011
   89 Torsion                  4     2     5     7          60.71080
   90 Torsion                  5     7     9    10         -31.72928
   91 Torsion                  5     7     9    11          86.59465
   92 Torsion                  5     7     9    17        -150.47936
   93 Torsion                  6     5     7     8        -176.56381
   94 Torsion                  6     5     7     9           0.32117
   95 Torsion                  7     9    11    12         -60.47375
   96 Torsion                  7     9    11    13          57.50572
   97 Torsion                  7     9    11    14         178.84947
   98 Torsion                  7     9    17    18         -16.08243
   99 Torsion                  7     9    17    19         163.74051
  100 Torsion                  8     7     9    10         145.25604
  101 Torsion                  8     7     9    11         -96.42003
  102 Torsion                  8     7     9    17          26.50595
  103 Torsion                  9    11    14    15          38.82668
  104 Torsion                  9    11    14    16        -133.77812
  105 Torsion                  9    17    19    20           6.13214
  106 Torsion                  9    17    19    21         172.70104
  107 Torsion                 10     9    11    12          58.61218
  108 Torsion                 10     9    11    13         176.59165
  109 Torsion                 10     9    11    14         -62.06461
  110 Torsion                 10     9    17    18        -135.63461
  111 Torsion                 10     9    17    19          44.18832
  112 Torsion                 11     9    17    18         105.61060
  113 Torsion                 11     9    17    19         -74.56647
  114 Torsion                 12    11     9    17         177.31203
  115 Torsion                 12    11    14    15         -82.21760
  116 Torsion                 12    11    14    16         105.17759
  117 Torsion                 13    11     9    17         -64.70850
  118 Torsion                 13    11    14    15         159.91181
  119 Torsion                 13    11    14    16         -12.69300
  120 Torsion                 14    11     9    17          56.63525
  121 Torsion                 17    19    21    22          39.76968
  122 Torsion                 17    19    21    23         156.94941
  123 Torsion                 17    19    21    27         -79.37060
  124 Torsion                 18    17    19    20        -174.04763
  125 Torsion                 18    17    19    21          -7.47872
  126 Torsion                 19    21    23    24          62.52384
  127 Torsion                 19    21    23    25        -177.52821
  128 Torsion                 19    21    23    26         -57.73831
  129 Torsion                 19    21    27    28         163.57624
  130 Torsion                 19    21    27    29         -17.15885
  131 Torsion                 20    19    21    22        -153.81426
  132 Torsion                 20    19    21    23         -36.63453
  133 Torsion                 20    19    21    27          87.04546
  134 Torsion                 21    27    29    30          -2.13667
  135 Torsion                 21    27    29    31         179.88568
  136 Torsion                 22    21    23    24         179.79565
  137 Torsion                 22    21    23    25         -60.25640
  138 Torsion                 22    21    23    26          59.53350
  139 Torsion                 22    21    27    28          43.51576
  140 Torsion                 22    21    27    29        -137.21934
  141 Torsion                 23    21    27    28         -74.66404
  142 Torsion                 23    21    27    29         104.60086
  143 Torsion                 24    23    21    27         -62.92896
  144 Torsion                 25    23    21    27          57.01899
  145 Torsion                 26    23    21    27         176.80889
  146 Torsion                 28    27    29    30         177.12908
  147 Torsion                 28    27    29    31          -0.84858


            XYZ format geometry
            -------------------
    31
 geometry
 H                     1.15176487     5.75226306    -0.27165329
 C                     1.34995093     4.76807074    -0.69111220
 H                     2.39898351     4.51274595    -0.55719840
 H                     1.09447308     4.75727463    -1.74887423
 C                     0.49834129     3.75023830     0.02950360
 O                    -0.25300327     4.10934739     0.92497052
 N                     0.64110875     2.49128920    -0.36787611
 H                     1.32366380     2.28144385    -1.07973110
 C                    -0.06670404     1.32640375     0.17887515
 H                    -0.26991872     1.49016685     1.23870317
 C                    -1.41629889     1.15917276    -0.54970741
 H                    -2.02186249     2.05270272    -0.39485931
 H                    -1.22961505     1.05526836    -1.62065606
 C                    -2.20314400    -0.05783764    -0.05094449
 O                    -2.17799350    -0.30791676     1.17567969
 O                    -2.70851941    -0.81279130    -0.90667498
 C                     0.80774980     0.05830180     0.04827298
 O                     1.78308164     0.04586460    -0.70685755
 N                     0.46845744    -1.00490472     0.77994339
 H                    -0.40505790    -0.93361834     1.30249023
 C                     1.08495774    -2.32697748     0.67034414
 H                     2.15969865    -2.19907599     0.52751491
 C                     0.85549831    -3.05646782     1.99929944
 H                    -0.21418598    -3.19336979     2.16691621
 H                     1.34162113    -4.03220221     1.96834780
 H                     1.27712808    -2.47407220     2.81881678
 C                     0.56798645    -3.16630613    -0.52195788
 O                     1.20114518    -4.14691024    -0.90326039
 N                    -0.56905056    -2.83604693    -1.12560570
 H                    -1.13380679    -2.05613210    -0.80309019
 H                    -0.88420615    -3.39409689    -1.89825582

 ==============================================================================
                                internuclear distances
 ------------------------------------------------------------------------------
       center one      |      center two      | atomic units |  angstroms
 ------------------------------------------------------------------------------
    2 C                |   1 H                |     2.05612  |     1.08805
    3 H                |   2 C                |     2.05589  |     1.08793
    4 H                |   2 C                |     2.05646  |     1.08823
    5 C                |   2 C                |     2.85374  |     1.51014
    6 O                |   5 C                |     2.31083  |     1.22284
    7 N                |   5 C                |     2.50932  |     1.32787
    8 H                |   7 N                |     1.90540  |     1.00829
    9 C                |   7 N                |     2.77532  |     1.46864
   10 H                |   9 C                |     2.06262  |     1.09149
   11 C                |   9 C                |     2.91545  |     1.54279
   12 H                |  11 C                |     2.06065  |     1.09045
   13 H                |  11 C                |     2.06368  |     1.09205
   14 C                |  11 C                |     2.89628  |     1.53265
   15 O                |  14 C                |     2.36614  |     1.25211
   16 O                |  14 C                |     2.35848  |     1.24805
   17 C                |   9 C                |     2.92133  |     1.54590
   18 O                |  17 C                |     2.33107  |     1.23355
   19 N                |  17 C                |     2.52182  |     1.33449
   20 H                |  19 N                |     1.92823  |     1.02038
   21 C                |  19 N                |     2.76441  |     1.46286
   22 H                |  21 C                |     2.06303  |     1.09171
   23 C                |  21 C                |     2.89747  |     1.53327
   24 H                |  23 C                |     2.06237  |     1.09136
   25 H                |  23 C                |     2.06087  |     1.09056
   26 H                |  23 C                |     2.06020  |     1.09021
   27 C                |  21 C                |     2.92347  |     1.54703
   28 O                |  27 C                |     2.32049  |     1.22795
   29 N                |  27 C                |     2.51150  |     1.32903
   30 H                |  29 N                |     1.91901  |     1.01550
   31 H                |  29 N                |     1.89702  |     1.00386
 ------------------------------------------------------------------------------
                         number of included internuclear distances:         30
 ==============================================================================



 ==============================================================================
                                 internuclear angles
 ------------------------------------------------------------------------------
        center 1       |       center 2       |       center 3       |  degrees
 ------------------------------------------------------------------------------
    1 H                |   2 C                |   3 H                |   109.91
    1 H                |   2 C                |   4 H                |   109.93
    1 H                |   2 C                |   5 C                |   108.84
    3 H                |   2 C                |   4 H                |   110.10
    3 H                |   2 C                |   5 C                |   109.08
    4 H                |   2 C                |   5 C                |   108.95
    2 C                |   5 C                |   6 O                |   119.87
    2 C                |   5 C                |   7 N                |   115.82
    6 O                |   5 C                |   7 N                |   124.31
    5 C                |   7 N                |   8 H                |   118.78
    5 C                |   7 N                |   9 C                |   126.07
    8 H                |   7 N                |   9 C                |   115.09
    7 N                |   9 C                |  10 H                |   109.40
    7 N                |   9 C                |  11 C                |   109.38
    7 N                |   9 C                |  17 C                |   110.28
   10 H                |   9 C                |  11 C                |   108.18
   10 H                |   9 C                |  17 C                |   108.08
   11 C                |   9 C                |  17 C                |   111.47
    9 C                |  11 C                |  12 H                |   109.26
    9 C                |  11 C                |  13 H                |   108.90
    9 C                |  11 C                |  14 C                |   112.43
   12 H                |  11 C                |  13 H                |   108.19
   12 H                |  11 C                |  14 C                |   108.62
   13 H                |  11 C                |  14 C                |   109.35
   11 C                |  14 C                |  15 O                |   117.85
   11 C                |  14 C                |  16 O                |   117.72
   15 O                |  14 C                |  16 O                |   123.99
    9 C                |  17 C                |  18 O                |   120.48
    9 C                |  17 C                |  19 N                |   117.61
   18 O                |  17 C                |  19 N                |   121.91
   17 C                |  19 N                |  20 H                |   116.28
   17 C                |  19 N                |  21 C                |   124.88
   20 H                |  19 N                |  21 C                |   117.53
   19 N                |  21 C                |  22 H                |   108.59
   19 N                |  21 C                |  23 C                |   107.58
   19 N                |  21 C                |  27 C                |   114.03
   22 H                |  21 C                |  23 C                |   108.45
   22 H                |  21 C                |  27 C                |   106.96
   23 C                |  21 C                |  27 C                |   111.09
   21 C                |  23 C                |  24 H                |   109.85
   21 C                |  23 C                |  25 H                |   109.53
   21 C                |  23 C                |  26 H                |   109.85
   24 H                |  23 C                |  25 H                |   109.21
   24 H                |  23 C                |  26 H                |   109.31
   25 H                |  23 C                |  26 H                |   109.08
   21 C                |  27 C                |  28 O                |   120.02
   21 C                |  27 C                |  29 N                |   120.07
   28 O                |  27 C                |  29 N                |   119.90
   27 C                |  29 N                |  30 H                |   121.49
   27 C                |  29 N                |  31 H                |   118.69
   30 H                |  29 N                |  31 H                |   119.79
 ------------------------------------------------------------------------------
                            number of included internuclear angles:         51
 ==============================================================================



  library name resolved from: environment
  library file name is: </opt/rit/el9/20230413/app/linux-rhel9-x86_64_v3/gcc-11.2.1/nwchem-7.2.0-oxtctbuhfuzyfaoziquq6bki22grib3g/share/nwchem/libraries/>
  


 Summary of "ao basis" -> "" (cartesian)
 ------------------------------------------------------------------------------
       Tag                 Description            Shells   Functions and Types
 ---------------- ------------------------------  ------  ---------------------
 *                        aug-cc-pvdz                 on all atoms 


                      Basis "ao basis" -> "ao basis" (cartesian)
                      -----
  H (Hydrogen)
  ------------
            Exponent  Coefficients 
       -------------- ---------------------------------------------------------
  1 S  1.30100000E+01  0.019685
  1 S  1.96200000E+00  0.137977
  1 S  4.44600000E-01  0.478148

  2 S  1.22000000E-01  1.000000

  3 S  2.97400000E-02  1.000000

  4 P  7.27000000E-01  1.000000

  5 P  1.41000000E-01  1.000000

  C (Carbon)
  ----------
            Exponent  Coefficients 
       -------------- ---------------------------------------------------------
  1 S  6.66500000E+03  0.000692
  1 S  1.00000000E+03  0.005329
  1 S  2.28000000E+02  0.027077
  1 S  6.47100000E+01  0.101718
  1 S  2.10600000E+01  0.274740
  1 S  7.49500000E+00  0.448564
  1 S  2.79700000E+00  0.285074
  1 S  5.21500000E-01  0.015204

  2 S  6.66500000E+03 -0.000146
  2 S  1.00000000E+03 -0.001154
  2 S  2.28000000E+02 -0.005725
  2 S  6.47100000E+01 -0.023312
  2 S  2.10600000E+01 -0.063955
  2 S  7.49500000E+00 -0.149981
  2 S  2.79700000E+00 -0.127262
  2 S  5.21500000E-01  0.544529

  3 S  1.59600000E-01  1.000000

  4 S  4.69000000E-02  1.000000

  5 P  9.43900000E+00  0.038109
  5 P  2.00200000E+00  0.209480
  5 P  5.45600000E-01  0.508557

  6 P  1.51700000E-01  1.000000

  7 P  4.04100000E-02  1.000000

  8 D  5.50000000E-01  1.000000

  9 D  1.51000000E-01  1.000000

  O (Oxygen)
  ----------
            Exponent  Coefficients 
       -------------- ---------------------------------------------------------
  1 S  1.17200000E+04  0.000710
  1 S  1.75900000E+03  0.005470
  1 S  4.00800000E+02  0.027837
  1 S  1.13700000E+02  0.104800
  1 S  3.70300000E+01  0.283062
  1 S  1.32700000E+01  0.448719
  1 S  5.02500000E+00  0.270952
  1 S  1.01300000E+00  0.015458

  2 S  1.17200000E+04 -0.000160
  2 S  1.75900000E+03 -0.001263
  2 S  4.00800000E+02 -0.006267
  2 S  1.13700000E+02 -0.025716
  2 S  3.70300000E+01 -0.070924
  2 S  1.32700000E+01 -0.165411
  2 S  5.02500000E+00 -0.116955
  2 S  1.01300000E+00  0.557368

  3 S  3.02300000E-01  1.000000

  4 S  7.89600000E-02  1.000000

  5 P  1.77000000E+01  0.043018
  5 P  3.85400000E+00  0.228913
  5 P  1.04600000E+00  0.508728

  6 P  2.75300000E-01  1.000000

  7 P  6.85600000E-02  1.000000

  8 D  1.18500000E+00  1.000000

  9 D  3.32000000E-01  1.000000

  N (Nitrogen)
  ------------
            Exponent  Coefficients 
       -------------- ---------------------------------------------------------
  1 S  9.04600000E+03  0.000700
  1 S  1.35700000E+03  0.005389
  1 S  3.09300000E+02  0.027406
  1 S  8.77300000E+01  0.103207
  1 S  2.85600000E+01  0.278723
  1 S  1.02100000E+01  0.448540
  1 S  3.83800000E+00  0.278238
  1 S  7.46600000E-01  0.015440

  2 S  9.04600000E+03 -0.000153
  2 S  1.35700000E+03 -0.001208
  2 S  3.09300000E+02 -0.005992
  2 S  8.77300000E+01 -0.024544
  2 S  2.85600000E+01 -0.067459
  2 S  1.02100000E+01 -0.158078
  2 S  3.83800000E+00 -0.121831
  2 S  7.46600000E-01  0.549003

  3 S  2.24800000E-01  1.000000

  4 S  6.12400000E-02  1.000000

  5 P  1.35500000E+01  0.039919
  5 P  2.91700000E+00  0.217169
  5 P  7.97300000E-01  0.510319

  6 P  2.18500000E-01  1.000000

  7 P  5.61100000E-02  1.000000

  8 D  8.17000000E-01  1.000000

  9 D  2.30000000E-01  1.000000



 Summary of "ao basis" -> "ao basis" (cartesian)
 ------------------------------------------------------------------------------
       Tag                 Description            Shells   Functions and Types
 ---------------- ------------------------------  ------  ---------------------
 H                        aug-cc-pvdz                5        9   3s2p
 C                        aug-cc-pvdz                9       25   4s3p2d
 O                        aug-cc-pvdz                9       25   4s3p2d
 N                        aug-cc-pvdz                9       25   4s3p2d


 ------------------------------------------------------------------------
 scf: no. of closed-shell electrons is not even!                   0
 ------------------------------------------------------------------------
 ------------------------------------------------------------------------
 scf: no. of closed-shell electrons is not even!                   0
 ------------------------------------------------------------------------
 ------------------------------------------------------------------------
  current input line : 
     0: 
 ------------------------------------------------------------------------
 scf: no. of closed-shell electrons is not even!                   0
 ------------------------------------------------------------------------
 ------------------------------------------------------------------------
  current input line : 
     0: 
 ------------------------------------------------------------------------
 ------------------------------------------------------------------------
 There is an error in the input file
 scf: no. of closed-shell electrons is not even!                   0
 ------------------------------------------------------------------------
 ------------------------------------------------------------------------
  current input line : 
     0: 
 ------------------------------------------------------------------------
 ------------------------------------------------------------------------
 There is an error in the input file
 ------------------------------------------------------------------------
 For more information see the NWChem manual at https://nwchemgit.github.io


 For further details see manual section:                                                                                                                                                                                                                                                                
 scf: no. of closed-shell electrons is not even!                   0
 ------------------------------------------------------------------------
 ------------------------------------------------------------------------
  current input line : 
     0: 
 ------------------------------------------------------------------------
 ------------------------------------------------------------------------
 There is an error in the input file
 ------------------------------------------------------------------------
 For more information see the NWChem manual at https://nwchemgit.github.io


 For further details see manual section:                                                                                                                                                                                                                                                                
 scf: no. of closed-shell electrons is not even!                   0
 ------------------------------------------------------------------------
 ------------------------------------------------------------------------
  current input line : 
     0: 
 ------------------------------------------------------------------------
 ------------------------------------------------------------------------
 There is an error in the input file
 ------------------------------------------------------------------------
 For more information see the NWChem manual at https://nwchemgit.github.io


 For further details see manual section:                                                                                                                                                                                                                                                                
 scf: no. of closed-shell electrons is not even!                   0
 ------------------------------------------------------------------------
 ------------------------------------------------------------------------
  current input line : 
     0: 
 ------------------------------------------------------------------------
 ------------------------------------------------------------------------
 There is an error in the input file
 ------------------------------------------------------------------------
 For more information see the NWChem manual at https://nwchemgit.github.io


 For further details see manual section:                                                                                                                                                                                                                                                                
  current input line : 
     0: 
 ------------------------------------------------------------------------
 ------------------------------------------------------------------------
 There is an error in the input file
 ------------------------------------------------------------------------
 For more information see the NWChem manual at https://nwchemgit.github.io


 For further details see manual section:                                                                                                                                                                                                                                                                
1:scf: no. of closed-shell electrons is not even!:Received an Error in Communication
 ------------------------------------------------------------------------
 There is an error in the input file
 ------------------------------------------------------------------------
 For more information see the NWChem manual at https://nwchemgit.github.io


 For further details see manual section:                                                                                                                                                                                                                                                                
2:scf: no. of closed-shell electrons is not even!:Received an Error in Communication
 ------------------------------------------------------------------------
 For more information see the NWChem manual at https://nwchemgit.github.io


 For further details see manual section:                                                                                                                                                                                                                                                                
3:scf: no. of closed-shell electrons is not even!:Received an Error in Communication
4:scf: no. of closed-shell electrons is not even!:Received an Error in Communication
5:scf: no. of closed-shell electrons is not even!:Received an Error in Communication
6:scf: no. of closed-shell electrons is not even!:Received an Error in Communication
7:scf: no. of closed-shell electrons is not even!:Received an Error in Communication
 scf: no. of closed-shell electrons is not even!                   0
 ------------------------------------------------------------------------
 ------------------------------------------------------------------------
  current input line : 
    46: task scf energy
 ------------------------------------------------------------------------
 ------------------------------------------------------------------------
 There is an error in the input file
 ------------------------------------------------------------------------
 For more information see the NWChem manual at https://nwchemgit.github.io


 For further details see manual section:                                                                                                                                                                                                                                                                
0:scf: no. of closed-shell electrons is not even!:Received an Error in Communication
--------------------------------------------------------------------------
MPI_ABORT was invoked on rank 2 in communicator MPI COMMUNICATOR 3 DUP FROM 0
with errorcode -1.

NOTE: invoking MPI_ABORT causes Open MPI to kill all MPI processes.
You may or may not see output from other processes, depending on
exactly when Open MPI kills them.
--------------------------------------------------------------------------
--------------------------------------------------------------------------
MPI_ABORT was invoked on rank 3 in communicator MPI COMMUNICATOR 3 DUP FROM 0
with errorcode -1.

NOTE: invoking MPI_ABORT causes Open MPI to kill all MPI processes.
You may or may not see output from other processes, depending on
exactly when Open MPI kills them.
--------------------------------------------------------------------------
--------------------------------------------------------------------------
MPI_ABORT was invoked on rank 6 in communicator MPI COMMUNICATOR 3 DUP FROM 0
with errorcode -1.

NOTE: invoking MPI_ABORT causes Open MPI to kill all MPI processes.
You may or may not see output from other processes, depending on
exactly when Open MPI kills them.
--------------------------------------------------------------------------
--------------------------------------------------------------------------
MPI_ABORT was invoked on rank 7 in communicator MPI COMMUNICATOR 3 DUP FROM 0
with errorcode -1.

NOTE: invoking MPI_ABORT causes Open MPI to kill all MPI processes.
You may or may not see output from other processes, depending on
exactly when Open MPI kills them.
--------------------------------------------------------------------------
--------------------------------------------------------------------------
MPI_ABORT was invoked on rank 1 in communicator MPI COMMUNICATOR 3 DUP FROM 0
with errorcode -1.

NOTE: invoking MPI_ABORT causes Open MPI to kill all MPI processes.
You may or may not see output from other processes, depending on
exactly when Open MPI kills them.
--------------------------------------------------------------------------
--------------------------------------------------------------------------
MPI_ABORT was invoked on rank 4 in communicator MPI COMMUNICATOR 3 DUP FROM 0
with errorcode -1.

NOTE: invoking MPI_ABORT causes Open MPI to kill all MPI processes.
You may or may not see output from other processes, depending on
exactly when Open MPI kills them.
--------------------------------------------------------------------------
--------------------------------------------------------------------------
MPI_ABORT was invoked on rank 5 in communicator MPI COMMUNICATOR 3 DUP FROM 0
with errorcode -1.

NOTE: invoking MPI_ABORT causes Open MPI to kill all MPI processes.
You may or may not see output from other processes, depending on
exactly when Open MPI kills them.
--------------------------------------------------------------------------
--------------------------------------------------------------------------
MPI_ABORT was invoked on rank 0 in communicator MPI COMMUNICATOR 3 DUP FROM 0
with errorcode -1.

NOTE: invoking MPI_ABORT causes Open MPI to kill all MPI processes.
You may or may not see output from other processes, depending on
exactly when Open MPI kills them.
--------------------------------------------------------------------------
slurmstepd: error: *** STEP 6619389.74 ON nova21-swift-1 CANCELLED AT 2025-07-10T09:26:34 ***
srun: Job step aborted: Waiting up to 32 seconds for job step to finish.
slurmstepd: error: --task-epilog failed status=9
srun: error: nova21-swift-1: tasks 0-7: Killed
