export TMOUT=5400
export TMPDIR=/tmp
export PTMPDIR=/tmp/ptmp
 argument  1 = inputs/ASP_GLY_1.nw



============================== echo of input deck ==============================
start ASP_GLY_1
geometry
H          4.71600        5.98700       -4.35500
C          4.41000        6.34800       -3.37500
H          3.60300        5.73100       -2.98700
H          4.08300        7.38300       -3.44500
C          5.58700        6.26800       -2.43400
O          6.66700        5.85500       -2.83400
N          5.36300        6.66900       -1.18900
H          4.42500        6.95500       -0.92700
C          6.31700        6.58100       -0.07300
H          7.32700        6.75500       -0.44500
C          5.97500        7.67800        0.95800
H          6.67700        7.60100        1.79000
H          6.13500        8.64900        0.48600
C          4.53800        7.64800        1.51600
O          4.29600        8.36100        2.50900
O          3.68400        6.90100        0.97400
C          6.30900        5.20200        0.61900
O          7.34100        4.74500        1.10900
N          5.14500        4.54500        0.66200
H          4.34300        5.08100        0.34600
C          4.88700        3.33300        1.44700
H          4.26000        2.66600        0.85900
H          5.82800        2.82300        1.65600
C          4.17900        3.58900        2.78700
O          4.03300        2.67000        3.58700
N          3.71500        4.80200        3.06400
H          3.79500        5.55500        2.38800
H          3.27400        4.96400        3.95200
end

basis
 * library aug-cc-pvdz
end

echo

scf
 direct
end

task scf energy
================================================================================


                                         
                                         


             Northwest Computational Chemistry Package (NWChem) 7.2.0
             --------------------------------------------------------


                    Environmental Molecular Sciences Laboratory
                       Pacific Northwest National Laboratory
                                Richland, WA 99352

                              Copyright (c) 1994-2022
                       Pacific Northwest National Laboratory
                            Battelle Memorial Institute

             NWChem is an open-source computational chemistry package
                        distributed under the terms of the
                      Educational Community License (ECL) 2.0
             A copy of the license is included with this distribution
                              in the LICENSE.TXT file

                                  ACKNOWLEDGMENT
                                  --------------

            This software and its documentation were developed at the
            EMSL at Pacific Northwest National Laboratory, a multiprogram
            national laboratory, operated for the U.S. Department of Energy
            by Battelle under Contract Number DE-AC05-76RL01830. Support
            for this work was provided by the Department of Energy Office
            of Biological and Environmental Research, Office of Basic
            Energy Sciences, and the Office of Advanced Scientific Computing.


           Job information
           ---------------

    hostname        = nova21-swift-1
    program         = /opt/rit/el9/20230413/app/linux-rhel9-x86_64_v3/gcc-11.2.1/nwchem-7.2.0-oxtctbuhfuzyfaoziquq6bki22grib3g/bin/nwchem
    date            = Fri Jul 11 10:01:44 2025

    compiled        = Wed_May_17_23:46:39_2023
    source          = /tmp/root/spack-stage/spack-stage-nwchem-7.2.0-oxtctbuhfuzyfaoziquq6bki22grib3g/spack-src
    nwchem branch   = 7.2.0
    nwchem revision = d0d141fd
    ga revision     = 5.8.0
    use scalapack   = T
    input           = inputs/ASP_GLY_1.nw
    prefix          = ASP_GLY_1.
    data base       = ./ASP_GLY_1.db
    status          = startup
    nproc           =        8
    time left       =     -1s



           Memory information
           ------------------

    heap     =   26214396 doubles =    200.0 Mbytes
    stack    =   26214401 doubles =    200.0 Mbytes
    global   =   52428800 doubles =    400.0 Mbytes (distinct from heap & stack)
    total    =  104857597 doubles =    800.0 Mbytes
    verify   = yes
    hardfail = no 


           Directory information
           ---------------------

  0 permanent = .
  0 scratch   = .




                                NWChem Input Module
                                -------------------



 Scaling coordinates for geometry "geometry" by  1.889725989
 (inverse scale =  0.529177249)

 C1  symmetry detected

          ------
          auto-z
          ------
  no constraints, skipping    0.0000000000000000     
  no constraints, skipping    0.0000000000000000     


                             Geometry "geometry" -> ""
                             -------------------------

 Output coordinates in angstroms (scale by  1.889725989 to convert to a.u.)

  No.       Tag          Charge          X              Y              Z
 ---- ---------------- ---------- -------------- -------------- --------------
    1 H                    1.0000    -1.38788630    -4.33842539    -1.92648125
    2 C                    6.0000    -0.63749726    -3.55431394    -1.84621596
    3 H                    1.0000    -0.84799340    -2.76374061    -2.56257284
    4 H                    1.0000     0.35226145    -3.96601793    -2.03042105
    5 C                    6.0000    -0.67762994    -2.97871582    -0.45183933
    6 O                    8.0000    -1.46761620    -3.41862012     0.37240270
    7 N                    7.0000     0.18162948    -1.99835956    -0.20369248
    8 H                    1.0000     0.77210261    -1.66111634    -0.95727890
    9 C                    6.0000     0.25348230    -1.21216773     1.03729727
   10 H                    1.0000     0.01923695    -1.85395489     1.88700213
   11 C                    6.0000     1.69304097    -0.67970088     1.20307991
   12 H                    1.0000     1.73872681    -0.08663504     2.11803495
   13 H                    1.0000     2.35794846    -1.53494062     1.33607620
   14 C                    6.0000     2.23214911     0.16844956     0.03379113
   15 O                    8.0000     3.28728643     0.80265631     0.22730863
   16 O                    8.0000     1.58719716     0.20803927    -1.04489262
   17 C                    6.0000    -0.73932116    -0.03133520     1.06063899
   18 O                    8.0000    -1.24115176     0.33963654     2.12107240
   19 N                    7.0000    -1.01655276     0.55899900    -0.10685498
   20 H                    1.0000    -0.44096585     0.25260751    -0.88478812
   21 C                    6.0000    -1.76213796     1.81242431    -0.26421031
   22 H                    1.0000    -2.40963451     1.72382603    -1.13407269
   23 H                    1.0000    -2.38789317     1.98066488     0.61293707
   24 C                    6.0000    -0.87554744     3.05279537    -0.45872733
   25 O                    8.0000    -1.38103610     4.17096911    -0.46548829
   26 N                    7.0000     0.43237659     2.90483138    -0.63432745
   27 H                    1.0000     0.84944855     1.98018083    -0.67250269
   28 H                    1.0000     1.00580720     3.72319286    -0.73791713

      Atomic Mass 
      ----------- 

      H                  1.007825
      C                 12.000000
      O                 15.994910
      N                 14.003070


 Effective nuclear repulsion energy (a.u.)    1171.7174660602

            Nuclear Dipole moment (a.u.) 
            ----------------------------
        X                 Y               Z
 ---------------- ---------------- ----------------
     0.0000000000     0.0000000000     0.0000000000



                                Z-matrix (autoz)
                                -------- 

 Units are Angstrom for bonds and degrees for angles

      Type          Name      I     J     K     L     M      Value
      ----------- --------  ----- ----- ----- ----- ----- ----------
    1 Stretch                  1     2                       1.08828
    2 Stretch                  2     3                       1.08742
    3 Stretch                  2     4                       1.08768
    4 Stretch                  2     5                       1.50904
    5 Stretch                  5     6                       1.22351
    6 Stretch                  5     7                       1.32703
    7 Stretch                  7     8                       1.01503
    8 Stretch                  7     9                       1.47082
    9 Stretch                  9    10                       1.09030
   10 Stretch                  9    11                       1.54381
   11 Stretch                  9    17                       1.54291
   12 Stretch                 11    12                       1.09131
   13 Stretch                 11    13                       1.09143
   14 Stretch                 11    14                       1.54183
   15 Stretch                 14    15                       1.24619
   16 Stretch                 14    16                       1.25741
   17 Stretch                 17    18                       1.23044
   18 Stretch                 17    19                       1.33731
   19 Stretch                 19    20                       1.01506
   20 Stretch                 19    21                       1.46688
   21 Stretch                 21    22                       1.08801
   22 Stretch                 21    23                       1.09053
   23 Stretch                 21    24                       1.53701
   24 Stretch                 24    25                       1.22714
   25 Stretch                 24    26                       1.32793
   26 Stretch                 26    27                       1.01508
   27 Stretch                 26    28                       1.00462
   28 Bend                     1     2     3               109.98412
   29 Bend                     1     2     4               110.01267
   30 Bend                     1     2     5               108.94353
   31 Bend                     2     5     6               120.16633
   32 Bend                     2     5     7               115.93510
   33 Bend                     3     2     4               109.86270
   34 Bend                     3     2     5               109.04157
   35 Bend                     4     2     5               108.96953
   36 Bend                     5     7     8               118.90099
   37 Bend                     5     7     9               125.75309
   38 Bend                     6     5     7               123.89842
   39 Bend                     7     9    10               109.41549
   40 Bend                     7     9    11               108.69436
   41 Bend                     7     9    17               112.98049
   42 Bend                     8     7     9               114.85991
   43 Bend                     9    11    12               108.45173
   44 Bend                     9    11    13               108.11281
   45 Bend                     9    11    14               115.74305
   46 Bend                     9    17    18               120.41213
   47 Bend                     9    17    19               117.25996
   48 Bend                    10     9    11               108.64299
   49 Bend                    10     9    17               107.48540
   50 Bend                    11     9    17               109.53735
   51 Bend                    11    14    15               117.27336
   52 Bend                    11    14    16               119.24575
   53 Bend                    12    11    13               107.34789
   54 Bend                    12    11    14               108.79856
   55 Bend                    13    11    14               108.08637
   56 Bend                    15    14    16               123.46839
   57 Bend                    17    19    20               114.72567
   58 Bend                    17    19    21               125.18504
   59 Bend                    18    17    19               122.32747
   60 Bend                    19    21    22               108.58252
   61 Bend                    19    21    23               109.70619
   62 Bend                    19    21    24               114.20213
   63 Bend                    20    19    21               117.64078
   64 Bend                    21    24    25               119.89620
   65 Bend                    21    24    26               119.66670
   66 Bend                    22    21    23               108.30886
   67 Bend                    22    21    24               107.92772
   68 Bend                    23    21    24               107.95566
   69 Bend                    24    26    27               120.74102
   70 Bend                    24    26    28               119.01654
   71 Bend                    25    24    26               120.43231
   72 Bend                    27    26    28               120.24006
   73 Torsion                  1     2     5     6           0.57241
   74 Torsion                  1     2     5     7        -179.56202
   75 Torsion                  2     5     7     8           3.11485
   76 Torsion                  2     5     7     9         174.68208
   77 Torsion                  3     2     5     6         120.61913
   78 Torsion                  3     2     5     7         -59.51530
   79 Torsion                  4     2     5     6        -119.46604
   80 Torsion                  4     2     5     7          60.39953
   81 Torsion                  5     7     9    10          35.58343
   82 Torsion                  5     7     9    11         154.07867
   83 Torsion                  5     7     9    17         -84.12000
   84 Torsion                  6     5     7     8        -177.02518
   85 Torsion                  6     5     7     9          -5.45795
   86 Torsion                  7     9    11    12         179.28751
   87 Torsion                  7     9    11    13         -64.61755
   88 Torsion                  7     9    11    14          56.73825
   89 Torsion                  7     9    17    18         147.65332
   90 Torsion                  7     9    17    19         -32.58224
   91 Torsion                  8     7     9    10        -152.55098
   92 Torsion                  8     7     9    11         -34.05575
   93 Torsion                  8     7     9    17          87.74558
   94 Torsion                  9    11    14    15         167.85473
   95 Torsion                  9    11    14    16         -10.90405
   96 Torsion                  9    17    19    20          -8.26345
   97 Torsion                  9    17    19    21        -169.99360
   98 Torsion                 10     9    11    12         -61.73137
   99 Torsion                 10     9    11    13          54.36358
  100 Torsion                 10     9    11    14         175.71937
  101 Torsion                 10     9    17    18          26.84587
  102 Torsion                 10     9    17    19        -153.38969
  103 Torsion                 11     9    17    18         -91.02095
  104 Torsion                 11     9    17    19          88.74348
  105 Torsion                 12    11     9    17          55.41028
  106 Torsion                 12    11    14    15          45.48926
  107 Torsion                 12    11    14    16        -133.26952
  108 Torsion                 13    11     9    17         171.50523
  109 Torsion                 13    11    14    15         -70.77529
  110 Torsion                 13    11    14    16         110.46593
  111 Torsion                 14    11     9    17         -67.13897
  112 Torsion                 17    19    21    22        -140.96882
  113 Torsion                 17    19    21    23         -22.77525
  114 Torsion                 17    19    21    24          98.55700
  115 Torsion                 18    17    19    20         171.49613
  116 Torsion                 18    17    19    21           9.76598
  117 Torsion                 19    21    24    25        -172.65166
  118 Torsion                 19    21    24    26           8.14124
  119 Torsion                 20    19    21    22          57.78100
  120 Torsion                 20    19    21    23         175.97457
  121 Torsion                 20    19    21    24         -62.69318
  122 Torsion                 21    24    26    27           2.05127
  123 Torsion                 21    24    26    28        -178.50850
  124 Torsion                 22    21    24    25          66.50976
  125 Torsion                 22    21    24    26        -112.69734
  126 Torsion                 23    21    24    25         -50.35702
  127 Torsion                 23    21    24    26         130.43588
  128 Torsion                 25    24    26    27        -177.15151
  129 Torsion                 25    24    26    28           2.28872


            XYZ format geometry
            -------------------
    28
 geometry
 H                    -1.38788630    -4.33842539    -1.92648125
 C                    -0.63749726    -3.55431394    -1.84621596
 H                    -0.84799340    -2.76374061    -2.56257284
 H                     0.35226145    -3.96601793    -2.03042105
 C                    -0.67762994    -2.97871582    -0.45183933
 O                    -1.46761620    -3.41862012     0.37240270
 N                     0.18162948    -1.99835956    -0.20369248
 H                     0.77210261    -1.66111634    -0.95727890
 C                     0.25348230    -1.21216773     1.03729727
 H                     0.01923695    -1.85395489     1.88700213
 C                     1.69304097    -0.67970088     1.20307991
 H                     1.73872681    -0.08663504     2.11803495
 H                     2.35794846    -1.53494062     1.33607620
 C                     2.23214911     0.16844956     0.03379113
 O                     3.28728643     0.80265631     0.22730863
 O                     1.58719716     0.20803927    -1.04489262
 C                    -0.73932116    -0.03133520     1.06063899
 O                    -1.24115176     0.33963654     2.12107240
 N                    -1.01655276     0.55899900    -0.10685498
 H                    -0.44096585     0.25260751    -0.88478812
 C                    -1.76213796     1.81242431    -0.26421031
 H                    -2.40963451     1.72382603    -1.13407269
 H                    -2.38789317     1.98066488     0.61293707
 C                    -0.87554744     3.05279537    -0.45872733
 O                    -1.38103610     4.17096911    -0.46548829
 N                     0.43237659     2.90483138    -0.63432745
 H                     0.84944855     1.98018083    -0.67250269
 H                     1.00580720     3.72319286    -0.73791713

 ==============================================================================
                                internuclear distances
 ------------------------------------------------------------------------------
       center one      |      center two      | atomic units |  angstroms
 ------------------------------------------------------------------------------
    2 C                |   1 H                |     2.05655  |     1.08828
    3 H                |   2 C                |     2.05493  |     1.08742
    4 H                |   2 C                |     2.05542  |     1.08768
    5 C                |   2 C                |     2.85168  |     1.50904
    6 O                |   5 C                |     2.31209  |     1.22351
    7 N                |   5 C                |     2.50772  |     1.32703
    8 H                |   7 N                |     1.91813  |     1.01503
    9 C                |   7 N                |     2.77945  |     1.47082
   10 H                |   9 C                |     2.06037  |     1.09030
   11 C                |   9 C                |     2.91737  |     1.54381
   12 H                |  11 C                |     2.06228  |     1.09131
   13 H                |  11 C                |     2.06251  |     1.09143
   14 C                |  11 C                |     2.91363  |     1.54183
   15 O                |  14 C                |     2.35495  |     1.24619
   16 O                |  14 C                |     2.37617  |     1.25741
   17 C                |   9 C                |     2.91568  |     1.54291
   18 O                |  17 C                |     2.32519  |     1.23044
   19 N                |  17 C                |     2.52715  |     1.33731
   20 H                |  19 N                |     1.91819  |     1.01506
   21 C                |  19 N                |     2.77200  |     1.46688
   22 H                |  21 C                |     2.05604  |     1.08801
   23 H                |  21 C                |     2.06081  |     1.09053
   24 C                |  21 C                |     2.90453  |     1.53701
   25 O                |  24 C                |     2.31896  |     1.22714
   26 N                |  24 C                |     2.50942  |     1.32793
   27 H                |  26 N                |     1.91822  |     1.01508
   28 H                |  26 N                |     1.89846  |     1.00462
 ------------------------------------------------------------------------------
                         number of included internuclear distances:         27
 ==============================================================================



 ==============================================================================
                                 internuclear angles
 ------------------------------------------------------------------------------
        center 1       |       center 2       |       center 3       |  degrees
 ------------------------------------------------------------------------------
    1 H                |   2 C                |   3 H                |   109.98
    1 H                |   2 C                |   4 H                |   110.01
    1 H                |   2 C                |   5 C                |   108.94
    3 H                |   2 C                |   4 H                |   109.86
    3 H                |   2 C                |   5 C                |   109.04
    4 H                |   2 C                |   5 C                |   108.97
    2 C                |   5 C                |   6 O                |   120.17
    2 C                |   5 C                |   7 N                |   115.94
    6 O                |   5 C                |   7 N                |   123.90
    5 C                |   7 N                |   8 H                |   118.90
    5 C                |   7 N                |   9 C                |   125.75
    8 H                |   7 N                |   9 C                |   114.86
    7 N                |   9 C                |  10 H                |   109.42
    7 N                |   9 C                |  11 C                |   108.69
    7 N                |   9 C                |  17 C                |   112.98
   10 H                |   9 C                |  11 C                |   108.64
   10 H                |   9 C                |  17 C                |   107.49
   11 C                |   9 C                |  17 C                |   109.54
    9 C                |  11 C                |  12 H                |   108.45
    9 C                |  11 C                |  13 H                |   108.11
    9 C                |  11 C                |  14 C                |   115.74
   12 H                |  11 C                |  13 H                |   107.35
   12 H                |  11 C                |  14 C                |   108.80
   13 H                |  11 C                |  14 C                |   108.09
   11 C                |  14 C                |  15 O                |   117.27
   11 C                |  14 C                |  16 O                |   119.25
   15 O                |  14 C                |  16 O                |   123.47
    9 C                |  17 C                |  18 O                |   120.41
    9 C                |  17 C                |  19 N                |   117.26
   18 O                |  17 C                |  19 N                |   122.33
   17 C                |  19 N                |  20 H                |   114.73
   17 C                |  19 N                |  21 C                |   125.19
   20 H                |  19 N                |  21 C                |   117.64
   19 N                |  21 C                |  22 H                |   108.58
   19 N                |  21 C                |  23 H                |   109.71
   19 N                |  21 C                |  24 C                |   114.20
   22 H                |  21 C                |  23 H                |   108.31
   22 H                |  21 C                |  24 C                |   107.93
   23 H                |  21 C                |  24 C                |   107.96
   21 C                |  24 C                |  25 O                |   119.90
   21 C                |  24 C                |  26 N                |   119.67
   25 O                |  24 C                |  26 N                |   120.43
   24 C                |  26 N                |  27 H                |   120.74
   24 C                |  26 N                |  28 H                |   119.02
   27 H                |  26 N                |  28 H                |   120.24
 ------------------------------------------------------------------------------
                            number of included internuclear angles:         45
 ==============================================================================



  library name resolved from: environment
  library file name is: </opt/rit/el9/20230413/app/linux-rhel9-x86_64_v3/gcc-11.2.1/nwchem-7.2.0-oxtctbuhfuzyfaoziquq6bki22grib3g/share/nwchem/libraries/>
  


 Summary of "ao basis" -> "" (cartesian)
 ------------------------------------------------------------------------------
       Tag                 Description            Shells   Functions and Types
 ---------------- ------------------------------  ------  ---------------------
 *                        aug-cc-pvdz                 on all atoms 


                      Basis "ao basis" -> "ao basis" (cartesian)
                      -----
  H (Hydrogen)
  ------------
            Exponent  Coefficients 
       -------------- ---------------------------------------------------------
  1 S  1.30100000E+01  0.019685
  1 S  1.96200000E+00  0.137977
  1 S  4.44600000E-01  0.478148

  2 S  1.22000000E-01  1.000000

  3 S  2.97400000E-02  1.000000

  4 P  7.27000000E-01  1.000000

  5 P  1.41000000E-01  1.000000

  C (Carbon)
  ----------
            Exponent  Coefficients 
       -------------- ---------------------------------------------------------
  1 S  6.66500000E+03  0.000692
  1 S  1.00000000E+03  0.005329
  1 S  2.28000000E+02  0.027077
  1 S  6.47100000E+01  0.101718
  1 S  2.10600000E+01  0.274740
  1 S  7.49500000E+00  0.448564
  1 S  2.79700000E+00  0.285074
  1 S  5.21500000E-01  0.015204

  2 S  6.66500000E+03 -0.000146
  2 S  1.00000000E+03 -0.001154
  2 S  2.28000000E+02 -0.005725
  2 S  6.47100000E+01 -0.023312
  2 S  2.10600000E+01 -0.063955
  2 S  7.49500000E+00 -0.149981
  2 S  2.79700000E+00 -0.127262
  2 S  5.21500000E-01  0.544529

  3 S  1.59600000E-01  1.000000

  4 S  4.69000000E-02  1.000000

  5 P  9.43900000E+00  0.038109
  5 P  2.00200000E+00  0.209480
  5 P  5.45600000E-01  0.508557

  6 P  1.51700000E-01  1.000000

  7 P  4.04100000E-02  1.000000

  8 D  5.50000000E-01  1.000000

  9 D  1.51000000E-01  1.000000

  O (Oxygen)
  ----------
            Exponent  Coefficients 
       -------------- ---------------------------------------------------------
  1 S  1.17200000E+04  0.000710
  1 S  1.75900000E+03  0.005470
  1 S  4.00800000E+02  0.027837
  1 S  1.13700000E+02  0.104800
  1 S  3.70300000E+01  0.283062
  1 S  1.32700000E+01  0.448719
  1 S  5.02500000E+00  0.270952
  1 S  1.01300000E+00  0.015458

  2 S  1.17200000E+04 -0.000160
  2 S  1.75900000E+03 -0.001263
  2 S  4.00800000E+02 -0.006267
  2 S  1.13700000E+02 -0.025716
  2 S  3.70300000E+01 -0.070924
  2 S  1.32700000E+01 -0.165411
  2 S  5.02500000E+00 -0.116955
  2 S  1.01300000E+00  0.557368

  3 S  3.02300000E-01  1.000000

  4 S  7.89600000E-02  1.000000

  5 P  1.77000000E+01  0.043018
  5 P  3.85400000E+00  0.228913
  5 P  1.04600000E+00  0.508728

  6 P  2.75300000E-01  1.000000

  7 P  6.85600000E-02  1.000000

  8 D  1.18500000E+00  1.000000

  9 D  3.32000000E-01  1.000000

  N (Nitrogen)
  ------------
            Exponent  Coefficients 
       -------------- ---------------------------------------------------------
  1 S  9.04600000E+03  0.000700
  1 S  1.35700000E+03  0.005389
  1 S  3.09300000E+02  0.027406
  1 S  8.77300000E+01  0.103207
  1 S  2.85600000E+01  0.278723
  1 S  1.02100000E+01  0.448540
  1 S  3.83800000E+00  0.278238
  1 S  7.46600000E-01  0.015440

  2 S  9.04600000E+03 -0.000153
  2 S  1.35700000E+03 -0.001208
  2 S  3.09300000E+02 -0.005992
  2 S  8.77300000E+01 -0.024544
  2 S  2.85600000E+01 -0.067459
  2 S  1.02100000E+01 -0.158078
  2 S  3.83800000E+00 -0.121831
  2 S  7.46600000E-01  0.549003

  3 S  2.24800000E-01  1.000000

  4 S  6.12400000E-02  1.000000

  5 P  1.35500000E+01  0.039919
  5 P  2.91700000E+00  0.217169
  5 P  7.97300000E-01  0.510319

  6 P  2.18500000E-01  1.000000

  7 P  5.61100000E-02  1.000000

  8 D  8.17000000E-01  1.000000

  9 D  2.30000000E-01  1.000000



 Summary of "ao basis" -> "ao basis" (cartesian)
 ------------------------------------------------------------------------------
       Tag                 Description            Shells   Functions and Types
 ---------------- ------------------------------  ------  ---------------------
 H                        aug-cc-pvdz                5        9   3s2p
 C                        aug-cc-pvdz                9       25   4s3p2d
 O                        aug-cc-pvdz                9       25   4s3p2d
 N                        aug-cc-pvdz                9       25   4s3p2d


 ------------------------------------------------------------------------
 scf: no. of closed-shell electrons is not even!                   0
 ------------------------------------------------------------------------
 ------------------------------------------------------------------------
  current input line : 
 scf: no. of closed-shell electrons is not even!                   0
 ------------------------------------------------------------------------
 ------------------------------------------------------------------------
  current input line : 
     0: 
 scf: no. of closed-shell electrons is not even!                   0
 ------------------------------------------------------------------------
 ------------------------------------------------------------------------
  current input line : 
     0: 
 ------------------------------------------------------------------------
 ------------------------------------------------------------------------
 There is an error in the input file
 scf: no. of closed-shell electrons is not even!                   0
 ------------------------------------------------------------------------
 ------------------------------------------------------------------------
  current input line : 
     0: 
 ------------------------------------------------------------------------
 ------------------------------------------------------------------------
 There is an error in the input file
 ------------------------------------------------------------------------
 For more information see the NWChem manual at https://nwchemgit.github.io


 scf: no. of closed-shell electrons is not even!                   0
 ------------------------------------------------------------------------
 ------------------------------------------------------------------------
  current input line : 
     0: 
 ------------------------------------------------------------------------
 ------------------------------------------------------------------------
 There is an error in the input file
 ------------------------------------------------------------------------
 For more information see the NWChem manual at https://nwchemgit.github.io


 For further details see manual section:                                                                                                                                                                                                                                                                
 scf: no. of closed-shell electrons is not even!                   0
 ------------------------------------------------------------------------
 ------------------------------------------------------------------------
  current input line : 
     0: 
 ------------------------------------------------------------------------
 ------------------------------------------------------------------------
 There is an error in the input file
 ------------------------------------------------------------------------
 For more information see the NWChem manual at https://nwchemgit.github.io


 For further details see manual section:                                                                                                                                                                                                                                                                
 scf: no. of closed-shell electrons is not even!                   0
 ------------------------------------------------------------------------
 ------------------------------------------------------------------------
  current input line : 
     0: 
 ------------------------------------------------------------------------
 ------------------------------------------------------------------------
 There is an error in the input file
 ------------------------------------------------------------------------
 For more information see the NWChem manual at https://nwchemgit.github.io


 For further details see manual section:                                                                                                                                                                                                                                                                
     0: 
 ------------------------------------------------------------------------
 ------------------------------------------------------------------------
 There is an error in the input file
 ------------------------------------------------------------------------
 For more information see the NWChem manual at https://nwchemgit.github.io


 For further details see manual section:                                                                                                                                                                                                                                                                
1:scf: no. of closed-shell electrons is not even!:Received an Error in Communication
 ------------------------------------------------------------------------
 ------------------------------------------------------------------------
 There is an error in the input file
 ------------------------------------------------------------------------
 For more information see the NWChem manual at https://nwchemgit.github.io


 For further details see manual section:                                                                                                                                                                                                                                                                
2:scf: no. of closed-shell electrons is not even!:Received an Error in Communication
 ------------------------------------------------------------------------
 For more information see the NWChem manual at https://nwchemgit.github.io


 For further details see manual section:                                                                                                                                                                                                                                                                
3:scf: no. of closed-shell electrons is not even!:Received an Error in Communication
 For further details see manual section:                                                                                                                                                                                                                                                                
4:scf: no. of closed-shell electrons is not even!:Received an Error in Communication
5:scf: no. of closed-shell electrons is not even!:Received an Error in Communication
6:scf: no. of closed-shell electrons is not even!:Received an Error in Communication
7:scf: no. of closed-shell electrons is not even!:Received an Error in Communication
 scf: no. of closed-shell electrons is not even!                   0
 ------------------------------------------------------------------------
 ------------------------------------------------------------------------
  current input line : 
    43: task scf energy
 ------------------------------------------------------------------------
 ------------------------------------------------------------------------
 There is an error in the input file
 ------------------------------------------------------------------------
 For more information see the NWChem manual at https://nwchemgit.github.io


 For further details see manual section:                                                                                                                                                                                                                                                                
0:scf: no. of closed-shell electrons is not even!:Received an Error in Communication
--------------------------------------------------------------------------
MPI_ABORT was invoked on rank 0 in communicator MPI COMMUNICATOR 3 DUP FROM 0
with errorcode -1.

NOTE: invoking MPI_ABORT causes Open MPI to kill all MPI processes.
You may or may not see output from other processes, depending on
exactly when Open MPI kills them.
--------------------------------------------------------------------------
--------------------------------------------------------------------------
MPI_ABORT was invoked on rank 5 in communicator MPI COMMUNICATOR 3 DUP FROM 0
with errorcode -1.

NOTE: invoking MPI_ABORT causes Open MPI to kill all MPI processes.
You may or may not see output from other processes, depending on
exactly when Open MPI kills them.
--------------------------------------------------------------------------
--------------------------------------------------------------------------
MPI_ABORT was invoked on rank 7 in communicator MPI COMMUNICATOR 3 DUP FROM 0
with errorcode -1.

NOTE: invoking MPI_ABORT causes Open MPI to kill all MPI processes.
You may or may not see output from other processes, depending on
exactly when Open MPI kills them.
--------------------------------------------------------------------------
--------------------------------------------------------------------------
MPI_ABORT was invoked on rank 2 in communicator MPI COMMUNICATOR 3 DUP FROM 0
with errorcode -1.

NOTE: invoking MPI_ABORT causes Open MPI to kill all MPI processes.
You may or may not see output from other processes, depending on
exactly when Open MPI kills them.
--------------------------------------------------------------------------
--------------------------------------------------------------------------
MPI_ABORT was invoked on rank 6 in communicator MPI COMMUNICATOR 3 DUP FROM 0
with errorcode -1.

NOTE: invoking MPI_ABORT causes Open MPI to kill all MPI processes.
You may or may not see output from other processes, depending on
exactly when Open MPI kills them.
--------------------------------------------------------------------------
--------------------------------------------------------------------------
MPI_ABORT was invoked on rank 1 in communicator MPI COMMUNICATOR 3 DUP FROM 0
with errorcode -1.

NOTE: invoking MPI_ABORT causes Open MPI to kill all MPI processes.
You may or may not see output from other processes, depending on
exactly when Open MPI kills them.
--------------------------------------------------------------------------
--------------------------------------------------------------------------
MPI_ABORT was invoked on rank 4 in communicator MPI COMMUNICATOR 3 DUP FROM 0
with errorcode -1.

NOTE: invoking MPI_ABORT causes Open MPI to kill all MPI processes.
You may or may not see output from other processes, depending on
exactly when Open MPI kills them.
--------------------------------------------------------------------------
--------------------------------------------------------------------------
MPI_ABORT was invoked on rank 3 in communicator MPI COMMUNICATOR 3 DUP FROM 0
with errorcode -1.

NOTE: invoking MPI_ABORT causes Open MPI to kill all MPI processes.
You may or may not see output from other processes, depending on
exactly when Open MPI kills them.
--------------------------------------------------------------------------
slurmstepd: error: *** STEP 6619389.116 ON nova21-swift-1 CANCELLED AT 2025-07-11T10:01:44 ***
srun: Job step aborted: Waiting up to 32 seconds for job step to finish.
slurmstepd: error: --task-epilog failed status=9
srun: error: nova21-swift-1: tasks 0-4,6: Killed
srun: error: nova21-swift-1: tasks 5,7: Exited with exit code 255
