export TMOUT=5400
export TMPDIR=/tmp
export PTMPDIR=/tmp/ptmp
 argument  1 = inputs/ASP_CYS_0.nw



============================== echo of input deck ==============================
start ASP_CYS_0
geometry
H          5.12300        8.07600       -4.35800
C          5.87400        8.30000       -3.60400
H          6.72100        8.80800       -4.06000
H          6.20500        7.37800       -3.12900
C          5.26500        9.20000       -2.55700
O          5.73200       10.31400       -2.35700
N          4.24400        8.69400       -1.87600
H          4.02100        7.71500       -2.00900
C          3.59200        9.33800       -0.72500
H          3.24100       10.32800       -1.02000
C          2.37200        8.49400       -0.29400
H          1.96000        8.92300        0.62100
H          1.61000        8.59500       -1.06900
C          2.61800        6.98700       -0.06900
O          1.62700        6.30000        0.24600
O          3.77200        6.51700       -0.23400
C          4.55900        9.53200        0.45700
O          4.58300       10.58500        1.09200
N          5.41300        8.53800        0.69800
H          5.21600        7.66700        0.21100
C          6.48900        8.54500        1.68600
H          6.09100        8.94400        2.62000
C          6.92200        7.08900        1.92200
H          7.31900        6.67000        0.99700
H          7.70700        7.07000        2.68000
S          5.52300        6.07300        2.49500
H          4.76300        6.13600        1.37800
C          7.69100        9.43800        1.29600
O          8.72100        9.42100        1.96300
N          7.62400       10.20000        0.20900
H          8.41200       10.77600       -0.02600
H          6.77000       10.23400       -0.33200
end

basis
 * library aug-cc-pvdz
end

echo

scf
 direct
end

task scf energy
================================================================================


                                         
                                         


             Northwest Computational Chemistry Package (NWChem) 7.2.0
             --------------------------------------------------------


                    Environmental Molecular Sciences Laboratory
                       Pacific Northwest National Laboratory
                                Richland, WA 99352

                              Copyright (c) 1994-2022
                       Pacific Northwest National Laboratory
                            Battelle Memorial Institute

             NWChem is an open-source computational chemistry package
                        distributed under the terms of the
                      Educational Community License (ECL) 2.0
             A copy of the license is included with this distribution
                              in the LICENSE.TXT file

                                  ACKNOWLEDGMENT
                                  --------------

            This software and its documentation were developed at the
            EMSL at Pacific Northwest National Laboratory, a multiprogram
            national laboratory, operated for the U.S. Department of Energy
            by Battelle under Contract Number DE-AC05-76RL01830. Support
            for this work was provided by the Department of Energy Office
            of Biological and Environmental Research, Office of Basic
            Energy Sciences, and the Office of Advanced Scientific Computing.


           Job information
           ---------------

    hostname        = nova21-swift-1
    program         = /opt/rit/el9/20230413/app/linux-rhel9-x86_64_v3/gcc-11.2.1/nwchem-7.2.0-oxtctbuhfuzyfaoziquq6bki22grib3g/bin/nwchem
    date            = Thu Jul 10 22:20:18 2025

    compiled        = Wed_May_17_23:46:39_2023
    source          = /tmp/root/spack-stage/spack-stage-nwchem-7.2.0-oxtctbuhfuzyfaoziquq6bki22grib3g/spack-src
    nwchem branch   = 7.2.0
    nwchem revision = d0d141fd
    ga revision     = 5.8.0
    use scalapack   = T
    input           = inputs/ASP_CYS_0.nw
    prefix          = ASP_CYS_0.
    data base       = ./ASP_CYS_0.db
    status          = startup
    nproc           =        8
    time left       =     -1s



           Memory information
           ------------------

    heap     =   26214396 doubles =    200.0 Mbytes
    stack    =   26214401 doubles =    200.0 Mbytes
    global   =   52428800 doubles =    400.0 Mbytes (distinct from heap & stack)
    total    =  104857597 doubles =    800.0 Mbytes
    verify   = yes
    hardfail = no 


           Directory information
           ---------------------

  0 permanent = .
  0 scratch   = .




                                NWChem Input Module
                                -------------------



 Scaling coordinates for geometry "geometry" by  1.889725989
 (inverse scale =  0.529177249)

 C1  symmetry detected

          ------
          auto-z
          ------
  no constraints, skipping    0.0000000000000000     
  no constraints, skipping    0.0000000000000000     


                             Geometry "geometry" -> ""
                             -------------------------

 Output coordinates in angstroms (scale by  1.889725989 to convert to a.u.)

  No.       Tag          Charge          X              Y              Z
 ---- ---------------- ---------- -------------- -------------- --------------
    1 H                    1.0000     3.06552550     2.22355224    -2.44130401
    2 C                    6.0000     2.83041440     1.17856981    -2.25308206
    3 H                    1.0000     3.68084986     0.55187498    -2.51273975
    4 H                    1.0000     1.96029974     0.88594299    -2.83835123
    5 C                    6.0000     2.51763832     1.00222992    -0.78741997
    6 O                    8.0000     3.19979135     0.25403055    -0.09897973
    7 N                    7.0000     1.46607871     1.67184231    -0.33126252
    8 H                    1.0000     0.87733354     2.14940441    -1.00295633
    9 C                    6.0000     0.90187160     1.54244804     1.02135290
   10 H                    1.0000     1.68080745     1.75239031     1.75586579
   11 C                    6.0000    -0.23181114     2.57647461     1.20037663
   12 H                    1.0000    -0.71046554     2.40192366     2.16548384
   13 H                    1.0000     0.22713498     3.56595630     1.24238186
   14 C                    6.0000    -1.31897980     2.60772169     0.10526114
   15 O                    8.0000    -2.21527018     3.46438783     0.23199583
   16 O                    8.0000    -1.24660180     1.80775650    -0.86151604
   17 C                    6.0000     0.38432290     0.11993703     1.30145068
   18 O                    8.0000     0.61172346    -0.43937831     2.37292879
   19 N                    7.0000    -0.24567397    -0.49323602     0.30017362
   20 H                    1.0000    -0.50111946     0.10275535    -0.48351055
   21 C                    6.0000    -0.71926608    -1.87514075     0.29583345
   22 H                    1.0000    -1.22808823    -2.06362702     1.24216000
   23 C                    6.0000    -1.73957704    -2.02039124    -0.84477552
   24 H                    1.0000    -1.25050745    -1.83066039    -1.80060403
   25 H                    1.0000    -2.12778699    -3.04041051    -0.84670767
   26 S                   16.0000    -3.12813402    -0.86039069    -0.63478921
   27 H                    1.0000    -2.44476763     0.29595964    -0.79328935
   28 C                    6.0000     0.41240595    -2.92422710     0.18142520
   29 O                    8.0000     0.14634229    -4.11132067     0.01987957
   30 N                    7.0000     1.68250851    -2.53415542     0.21864858
   31 H                    1.0000     2.40325125    -3.22940452     0.14720916
   32 H                    1.0000     1.90728887    -1.56010160     0.37306990

      Atomic Mass 
      ----------- 

      H                  1.007825
      C                 12.000000
      O                 15.994910
      N                 14.003070
      S                 31.972070


 Effective nuclear repulsion energy (a.u.)    1585.3972417117

            Nuclear Dipole moment (a.u.) 
            ----------------------------
        X                 Y               Z
 ---------------- ---------------- ----------------
    -0.0000000000    -0.0000000000    -0.0000000000



                                Z-matrix (autoz)
                                -------- 

 Units are Angstrom for bonds and degrees for angles

      Type          Name      I     J     K     L     M      Value
      ----------- --------  ----- ----- ----- ----- ----- ----------
    1 Stretch                  1     2                       1.08752
    2 Stretch                  2     3                       1.08785
    3 Stretch                  2     4                       1.08870
    4 Stretch                  2     5                       1.50900
    5 Stretch                  5     6                       1.22437
    6 Stretch                  5     7                       1.32749
    7 Stretch                  7     8                       1.01285
    8 Stretch                  7     9                       1.47127
    9 Stretch                  9    10                       1.09102
   10 Stretch                  9    11                       1.54483
   11 Stretch                  9    17                       1.53943
   12 Stretch                 11    12                       1.09133
   13 Stretch                 11    13                       1.09154
   14 Stretch                 11    14                       1.54343
   15 Stretch                 14    15                       1.24630
   16 Stretch                 14    16                       1.25692
   17 Stretch                 17    18                       1.22988
   18 Stretch                 17    19                       1.33245
   19 Stretch                 19    20                       1.01716
   20 Stretch                 19    21                       1.46081
   21 Stretch                 21    22                       1.09085
   22 Stretch                 21    23                       1.53724
   23 Stretch                 21    28                       1.54737
   24 Stretch                 23    24                       1.09032
   25 Stretch                 23    25                       1.09140
   26 Stretch                 23    26                       1.82148
   27 Stretch                 26    27                       1.35250
   28 Stretch                 28    29                       1.22722
   29 Stretch                 28    30                       1.32917
   30 Stretch                 30    31                       1.00396
   31 Stretch                 30    32                       1.01151
   32 Bend                     1     2     3               110.07412
   33 Bend                     1     2     4               109.75597
   34 Bend                     1     2     5               108.97785
   35 Bend                     2     5     6               120.13642
   36 Bend                     2     5     7               116.03994
   37 Bend                     3     2     4               109.97689
   38 Bend                     3     2     5               109.05960
   39 Bend                     4     2     5               108.97025
   40 Bend                     5     7     8               118.06069
   41 Bend                     5     7     9               125.12203
   42 Bend                     6     5     7               123.80505
   43 Bend                     7     9    10               109.16123
   44 Bend                     7     9    11               109.21377
   45 Bend                     7     9    17               112.17689
   46 Bend                     8     7     9               115.35639
   47 Bend                     9    11    12               108.49919
   48 Bend                     9    11    13               107.61781
   49 Bend                     9    11    14               116.63096
   50 Bend                     9    17    18               121.10345
   51 Bend                     9    17    19               116.58098
   52 Bend                    10     9    11               108.48878
   53 Bend                    10     9    17               107.17822
   54 Bend                    11     9    17               110.53049
   55 Bend                    11    14    15               116.63643
   56 Bend                    11    14    16               119.49194
   57 Bend                    12    11    13               107.17950
   58 Bend                    12    11    14               108.76963
   59 Bend                    13    11    14               107.76502
   60 Bend                    15    14    16               123.85552
   61 Bend                    17    19    20               115.34497
   62 Bend                    17    19    21               126.21685
   63 Bend                    18    17    19               122.19563
   64 Bend                    19    21    22               108.18568
   65 Bend                    19    21    23               107.86452
   66 Bend                    19    21    28               113.85828
   67 Bend                    20    19    21               118.07190
   68 Bend                    21    23    24               109.65150
   69 Bend                    21    23    25               109.00854
   70 Bend                    21    23    26               111.11634
   71 Bend                    21    28    29               120.46322
   72 Bend                    21    28    30               119.85537
   73 Bend                    22    21    23               108.52750
   74 Bend                    22    21    28               106.74600
   75 Bend                    23    21    28               111.49976
   76 Bend                    23    26    27                98.38373
   77 Bend                    24    23    25               108.70120
   78 Bend                    24    23    26               109.40166
   79 Bend                    25    23    26               108.91957
   80 Bend                    28    30    31               118.73574
   81 Bend                    28    30    32               119.94868
   82 Bend                    29    28    30               119.65166
   83 Bend                    31    30    32               121.21095
   84 Torsion                  1     2     5     6        -119.34459
   85 Torsion                  1     2     5     7          62.16478
   86 Torsion                  2     5     7     8           7.95029
   87 Torsion                  2     5     7     9         173.47926
   88 Torsion                  3     2     5     6           0.84279
   89 Torsion                  3     2     5     7        -177.64784
   90 Torsion                  4     2     5     6         120.90746
   91 Torsion                  4     2     5     7         -57.58317
   92 Torsion                  5     7     9    10          56.54023
   93 Torsion                  5     7     9    11         175.00511
   94 Torsion                  5     7     9    17         -62.09848
   95 Torsion                  6     5     7     8        -170.47875
   96 Torsion                  6     5     7     9          -4.94978
   97 Torsion                  7     9    11    12         174.16133
   98 Torsion                  7     9    11    13         -70.17824
   99 Torsion                  7     9    11    14          50.97702
  100 Torsion                  7     9    17    18         136.48895
  101 Torsion                  7     9    17    19         -39.61419
  102 Torsion                  8     7     9    10        -137.58398
  103 Torsion                  8     7     9    11         -19.11909
  104 Torsion                  8     7     9    17         103.77731
  105 Torsion                  9    11    14    15        -178.25366
  106 Torsion                  9    11    14    16           0.34237
  107 Torsion                  9    17    19    20         -12.60882
  108 Torsion                  9    17    19    21         174.51662
  109 Torsion                 10     9    11    12         -66.95460
  110 Torsion                 10     9    11    13          48.70583
  111 Torsion                 10     9    11    14         169.86108
  112 Torsion                 10     9    17    18          16.68663
  113 Torsion                 10     9    17    19        -159.41650
  114 Torsion                 11     9    17    18        -101.36105
  115 Torsion                 11     9    17    19          82.53582
  116 Torsion                 12    11     9    17          50.28813
  117 Torsion                 12    11    14    15          58.70184
  118 Torsion                 12    11    14    16        -122.70213
  119 Torsion                 13    11     9    17         165.94856
  120 Torsion                 13    11    14    15         -57.17620
  121 Torsion                 13    11    14    16         121.41983
  122 Torsion                 14    11     9    17         -72.89619
  123 Torsion                 17    19    21    22          45.60443
  124 Torsion                 17    19    21    23         162.81679
  125 Torsion                 17    19    21    28         -72.87889
  126 Torsion                 18    17    19    20         171.33418
  127 Torsion                 18    17    19    21          -1.54038
  128 Torsion                 19    21    23    24          62.73691
  129 Torsion                 19    21    23    25        -178.37391
  130 Torsion                 19    21    23    26         -58.32963
  131 Torsion                 19    21    28    29        -172.01956
  132 Torsion                 19    21    28    30           5.98979
  133 Torsion                 20    19    21    22        -127.09647
  134 Torsion                 20    19    21    23          -9.88411
  135 Torsion                 20    19    21    28         114.42020
  136 Torsion                 21    23    26    27          65.56816
  137 Torsion                 21    28    30    31         179.72239
  138 Torsion                 21    28    30    32           3.39592
  139 Torsion                 22    21    23    24         179.72765
  140 Torsion                 22    21    23    25         -61.38318
  141 Torsion                 22    21    23    26          58.66110
  142 Torsion                 22    21    28    29          68.67629
  143 Torsion                 22    21    28    30        -113.31437
  144 Torsion                 23    21    28    29         -49.69415
  145 Torsion                 23    21    28    30         128.31519
  146 Torsion                 24    23    21    28         -62.97466
  147 Torsion                 24    23    26    27         -55.64504
  148 Torsion                 25    23    21    28          55.91451
  149 Torsion                 25    23    26    27        -174.33476
  150 Torsion                 26    23    21    28         175.95879
  151 Torsion                 29    28    30    31          -2.25201
  152 Torsion                 29    28    30    32        -178.57848


            XYZ format geometry
            -------------------
    32
 geometry
 H                     3.06552550     2.22355224    -2.44130401
 C                     2.83041440     1.17856981    -2.25308206
 H                     3.68084986     0.55187498    -2.51273975
 H                     1.96029974     0.88594299    -2.83835123
 C                     2.51763832     1.00222992    -0.78741997
 O                     3.19979135     0.25403055    -0.09897973
 N                     1.46607871     1.67184231    -0.33126252
 H                     0.87733354     2.14940441    -1.00295633
 C                     0.90187160     1.54244804     1.02135290
 H                     1.68080745     1.75239031     1.75586579
 C                    -0.23181114     2.57647461     1.20037663
 H                    -0.71046554     2.40192366     2.16548384
 H                     0.22713498     3.56595630     1.24238186
 C                    -1.31897980     2.60772169     0.10526114
 O                    -2.21527018     3.46438783     0.23199583
 O                    -1.24660180     1.80775650    -0.86151604
 C                     0.38432290     0.11993703     1.30145068
 O                     0.61172346    -0.43937831     2.37292879
 N                    -0.24567397    -0.49323602     0.30017362
 H                    -0.50111946     0.10275535    -0.48351055
 C                    -0.71926608    -1.87514075     0.29583345
 H                    -1.22808823    -2.06362702     1.24216000
 C                    -1.73957704    -2.02039124    -0.84477552
 H                    -1.25050745    -1.83066039    -1.80060403
 H                    -2.12778699    -3.04041051    -0.84670767
 S                    -3.12813402    -0.86039069    -0.63478921
 H                    -2.44476763     0.29595964    -0.79328935
 C                     0.41240595    -2.92422710     0.18142520
 O                     0.14634229    -4.11132067     0.01987957
 N                     1.68250851    -2.53415542     0.21864858
 H                     2.40325125    -3.22940452     0.14720916
 H                     1.90728887    -1.56010160     0.37306990

 ==============================================================================
                                internuclear distances
 ------------------------------------------------------------------------------
       center one      |      center two      | atomic units |  angstroms
 ------------------------------------------------------------------------------
    2 C                |   1 H                |     2.05511  |     1.08752
    3 H                |   2 C                |     2.05573  |     1.08785
    4 H                |   2 C                |     2.05735  |     1.08870
    5 C                |   2 C                |     2.85160  |     1.50900
    6 O                |   5 C                |     2.31373  |     1.22437
    7 N                |   5 C                |     2.50860  |     1.32749
    8 H                |   7 N                |     1.91400  |     1.01285
    9 C                |   7 N                |     2.78030  |     1.47127
   10 H                |   9 C                |     2.06173  |     1.09102
   11 C                |   9 C                |     2.91930  |     1.54483
   12 H                |  11 C                |     2.06232  |     1.09133
   13 H                |  11 C                |     2.06272  |     1.09154
   14 C                |  11 C                |     2.91667  |     1.54343
   15 O                |  14 C                |     2.35517  |     1.24630
   16 O                |  14 C                |     2.37523  |     1.25692
   17 C                |   9 C                |     2.90910  |     1.53943
   18 O                |  17 C                |     2.32414  |     1.22988
   19 N                |  17 C                |     2.51797  |     1.33245
   20 H                |  19 N                |     1.92216  |     1.01716
   21 C                |  19 N                |     2.76053  |     1.46081
   22 H                |  21 C                |     2.06141  |     1.09085
   23 C                |  21 C                |     2.90497  |     1.53724
   24 H                |  23 C                |     2.06040  |     1.09032
   25 H                |  23 C                |     2.06244  |     1.09140
   26 S                |  23 C                |     3.44210  |     1.82148
   27 H                |  26 S                |     2.55586  |     1.35250
   28 C                |  21 C                |     2.92410  |     1.54737
   29 O                |  28 C                |     2.31912  |     1.22722
   30 N                |  28 C                |     2.51177  |     1.32917
   31 H                |  30 N                |     1.89722  |     1.00396
   32 H                |  30 N                |     1.91148  |     1.01151
 ------------------------------------------------------------------------------
                         number of included internuclear distances:         31
 ==============================================================================



 ==============================================================================
                                 internuclear angles
 ------------------------------------------------------------------------------
        center 1       |       center 2       |       center 3       |  degrees
 ------------------------------------------------------------------------------
    1 H                |   2 C                |   3 H                |   110.07
    1 H                |   2 C                |   4 H                |   109.76
    1 H                |   2 C                |   5 C                |   108.98
    3 H                |   2 C                |   4 H                |   109.98
    3 H                |   2 C                |   5 C                |   109.06
    4 H                |   2 C                |   5 C                |   108.97
    2 C                |   5 C                |   6 O                |   120.14
    2 C                |   5 C                |   7 N                |   116.04
    6 O                |   5 C                |   7 N                |   123.81
    5 C                |   7 N                |   8 H                |   118.06
    5 C                |   7 N                |   9 C                |   125.12
    8 H                |   7 N                |   9 C                |   115.36
    7 N                |   9 C                |  10 H                |   109.16
    7 N                |   9 C                |  11 C                |   109.21
    7 N                |   9 C                |  17 C                |   112.18
   10 H                |   9 C                |  11 C                |   108.49
   10 H                |   9 C                |  17 C                |   107.18
   11 C                |   9 C                |  17 C                |   110.53
    9 C                |  11 C                |  12 H                |   108.50
    9 C                |  11 C                |  13 H                |   107.62
    9 C                |  11 C                |  14 C                |   116.63
   12 H                |  11 C                |  13 H                |   107.18
   12 H                |  11 C                |  14 C                |   108.77
   13 H                |  11 C                |  14 C                |   107.77
   11 C                |  14 C                |  15 O                |   116.64
   11 C                |  14 C                |  16 O                |   119.49
   15 O                |  14 C                |  16 O                |   123.86
    9 C                |  17 C                |  18 O                |   121.10
    9 C                |  17 C                |  19 N                |   116.58
   18 O                |  17 C                |  19 N                |   122.20
   17 C                |  19 N                |  20 H                |   115.34
   17 C                |  19 N                |  21 C                |   126.22
   20 H                |  19 N                |  21 C                |   118.07
   19 N                |  21 C                |  22 H                |   108.19
   19 N                |  21 C                |  23 C                |   107.86
   19 N                |  21 C                |  28 C                |   113.86
   22 H                |  21 C                |  23 C                |   108.53
   22 H                |  21 C                |  28 C                |   106.75
   23 C                |  21 C                |  28 C                |   111.50
   21 C                |  23 C                |  24 H                |   109.65
   21 C                |  23 C                |  25 H                |   109.01
   21 C                |  23 C                |  26 S                |   111.12
   24 H                |  23 C                |  25 H                |   108.70
   24 H                |  23 C                |  26 S                |   109.40
   25 H                |  23 C                |  26 S                |   108.92
   23 C                |  26 S                |  27 H                |    98.38
   21 C                |  28 C                |  29 O                |   120.46
   21 C                |  28 C                |  30 N                |   119.86
   29 O                |  28 C                |  30 N                |   119.65
   28 C                |  30 N                |  31 H                |   118.74
   28 C                |  30 N                |  32 H                |   119.95
   31 H                |  30 N                |  32 H                |   121.21
 ------------------------------------------------------------------------------
                            number of included internuclear angles:         52
 ==============================================================================



  library name resolved from: environment
  library file name is: </opt/rit/el9/20230413/app/linux-rhel9-x86_64_v3/gcc-11.2.1/nwchem-7.2.0-oxtctbuhfuzyfaoziquq6bki22grib3g/share/nwchem/libraries/>
  


 Summary of "ao basis" -> "" (cartesian)
 ------------------------------------------------------------------------------
       Tag                 Description            Shells   Functions and Types
 ---------------- ------------------------------  ------  ---------------------
 *                        aug-cc-pvdz                 on all atoms 


                      Basis "ao basis" -> "ao basis" (cartesian)
                      -----
  H (Hydrogen)
  ------------
            Exponent  Coefficients 
       -------------- ---------------------------------------------------------
  1 S  1.30100000E+01  0.019685
  1 S  1.96200000E+00  0.137977
  1 S  4.44600000E-01  0.478148

  2 S  1.22000000E-01  1.000000

  3 S  2.97400000E-02  1.000000

  4 P  7.27000000E-01  1.000000

  5 P  1.41000000E-01  1.000000

  C (Carbon)
  ----------
            Exponent  Coefficients 
       -------------- ---------------------------------------------------------
  1 S  6.66500000E+03  0.000692
  1 S  1.00000000E+03  0.005329
  1 S  2.28000000E+02  0.027077
  1 S  6.47100000E+01  0.101718
  1 S  2.10600000E+01  0.274740
  1 S  7.49500000E+00  0.448564
  1 S  2.79700000E+00  0.285074
  1 S  5.21500000E-01  0.015204

  2 S  6.66500000E+03 -0.000146
  2 S  1.00000000E+03 -0.001154
  2 S  2.28000000E+02 -0.005725
  2 S  6.47100000E+01 -0.023312
  2 S  2.10600000E+01 -0.063955
  2 S  7.49500000E+00 -0.149981
  2 S  2.79700000E+00 -0.127262
  2 S  5.21500000E-01  0.544529

  3 S  1.59600000E-01  1.000000

  4 S  4.69000000E-02  1.000000

  5 P  9.43900000E+00  0.038109
  5 P  2.00200000E+00  0.209480
  5 P  5.45600000E-01  0.508557

  6 P  1.51700000E-01  1.000000

  7 P  4.04100000E-02  1.000000

  8 D  5.50000000E-01  1.000000

  9 D  1.51000000E-01  1.000000

  O (Oxygen)
  ----------
            Exponent  Coefficients 
       -------------- ---------------------------------------------------------
  1 S  1.17200000E+04  0.000710
  1 S  1.75900000E+03  0.005470
  1 S  4.00800000E+02  0.027837
  1 S  1.13700000E+02  0.104800
  1 S  3.70300000E+01  0.283062
  1 S  1.32700000E+01  0.448719
  1 S  5.02500000E+00  0.270952
  1 S  1.01300000E+00  0.015458

  2 S  1.17200000E+04 -0.000160
  2 S  1.75900000E+03 -0.001263
  2 S  4.00800000E+02 -0.006267
  2 S  1.13700000E+02 -0.025716
  2 S  3.70300000E+01 -0.070924
  2 S  1.32700000E+01 -0.165411
  2 S  5.02500000E+00 -0.116955
  2 S  1.01300000E+00  0.557368

  3 S  3.02300000E-01  1.000000

  4 S  7.89600000E-02  1.000000

  5 P  1.77000000E+01  0.043018
  5 P  3.85400000E+00  0.228913
  5 P  1.04600000E+00  0.508728

  6 P  2.75300000E-01  1.000000

  7 P  6.85600000E-02  1.000000

  8 D  1.18500000E+00  1.000000

  9 D  3.32000000E-01  1.000000

  N (Nitrogen)
  ------------
            Exponent  Coefficients 
       -------------- ---------------------------------------------------------
  1 S  9.04600000E+03  0.000700
  1 S  1.35700000E+03  0.005389
  1 S  3.09300000E+02  0.027406
  1 S  8.77300000E+01  0.103207
  1 S  2.85600000E+01  0.278723
  1 S  1.02100000E+01  0.448540
  1 S  3.83800000E+00  0.278238
  1 S  7.46600000E-01  0.015440

  2 S  9.04600000E+03 -0.000153
  2 S  1.35700000E+03 -0.001208
  2 S  3.09300000E+02 -0.005992
  2 S  8.77300000E+01 -0.024544
  2 S  2.85600000E+01 -0.067459
  2 S  1.02100000E+01 -0.158078
  2 S  3.83800000E+00 -0.121831
  2 S  7.46600000E-01  0.549003

  3 S  2.24800000E-01  1.000000

  4 S  6.12400000E-02  1.000000

  5 P  1.35500000E+01  0.039919
  5 P  2.91700000E+00  0.217169
  5 P  7.97300000E-01  0.510319

  6 P  2.18500000E-01  1.000000

  7 P  5.61100000E-02  1.000000

  8 D  8.17000000E-01  1.000000

  9 D  2.30000000E-01  1.000000

  S (Sulphur)
  -----------
            Exponent  Coefficients 
       -------------- ---------------------------------------------------------
  1 S  1.10800000E+05  0.000248
  1 S  1.66100000E+04  0.001920
  1 S  3.78100000E+03  0.009962
  1 S  1.07100000E+03  0.040298
  1 S  3.49800000E+02  0.128604
  1 S  1.26300000E+02  0.303480
  1 S  4.92600000E+01  0.421432
  1 S  2.01600000E+01  0.230781
  1 S  5.72000000E+00  0.017897
  1 S  2.18200000E+00 -0.002975
  1 S  4.32700000E-01  0.000850

  2 S  1.10800000E+05 -0.000069
  2 S  1.66100000E+04 -0.000528
  2 S  3.78100000E+03 -0.002797
  2 S  1.07100000E+03 -0.011265
  2 S  3.49800000E+02 -0.038883
  2 S  1.26300000E+02 -0.099503
  2 S  4.92600000E+01 -0.199740
  2 S  2.01600000E+01 -0.123360
  2 S  5.72000000E+00  0.513194
  2 S  2.18200000E+00  0.607120
  2 S  4.32700000E-01  0.039675

  3 S  1.10800000E+05  0.000020
  3 S  1.66100000E+04  0.000153
  3 S  3.78100000E+03  0.000810
  3 S  1.07100000E+03  0.003290
  3 S  3.49800000E+02  0.011297
  3 S  1.26300000E+02  0.029639
  3 S  4.92600000E+01  0.059985
  3 S  2.01600000E+01  0.041325
  3 S  5.72000000E+00 -0.207474
  3 S  2.18200000E+00 -0.392889
  3 S  4.32700000E-01  0.632840

  4 S  1.57000000E-01  1.000000

  5 S  5.07000000E-02  1.000000

  6 P  3.99700000E+02  0.004475
  6 P  9.41900000E+01  0.034171
  6 P  2.97500000E+01  0.144250
  6 P  1.07700000E+01  0.353928
  6 P  4.11900000E+00  0.459085
  6 P  1.62500000E+00  0.206383
  6 P  4.72600000E-01  0.010214

  7 P  3.99700000E+02 -0.001163
  7 P  9.41900000E+01 -0.008657
  7 P  2.97500000E+01 -0.039089
  7 P  1.07700000E+01 -0.093463
  7 P  4.11900000E+00 -0.147994
  7 P  1.62500000E+00  0.030190
  7 P  4.72600000E-01  0.561573

  8 P  1.40700000E-01  1.000000

  9 P  3.99000000E-02  1.000000

 10 D  4.79000000E-01  1.000000

 11 D  1.52000000E-01  1.000000



 Summary of "ao basis" -> "ao basis" (cartesian)
 ------------------------------------------------------------------------------
       Tag                 Description            Shells   Functions and Types
 ---------------- ------------------------------  ------  ---------------------
 H                        aug-cc-pvdz                5        9   3s2p
 C                        aug-cc-pvdz                9       25   4s3p2d
 O                        aug-cc-pvdz                9       25   4s3p2d
 N                        aug-cc-pvdz                9       25   4s3p2d
 S                        aug-cc-pvdz               11       29   5s4p2d


 ------------------------------------------------------------------------
 scf: no. of closed-shell electrons is not even!                   0
 ------------------------------------------------------------------------
 ------------------------------------------------------------------------
  current input line : 
 scf: no. of closed-shell electrons is not even!                   0
 ------------------------------------------------------------------------
 ------------------------------------------------------------------------
  current input line : 
     0: 
 ------------------------------------------------------------------------
 scf: no. of closed-shell electrons is not even!                   0
 ------------------------------------------------------------------------
 ------------------------------------------------------------------------
  current input line : 
     0: 
 ------------------------------------------------------------------------
 ------------------------------------------------------------------------
 There is an error in the input file
 ------------------------------------------------------------------------
 scf: no. of closed-shell electrons is not even!                   0
 ------------------------------------------------------------------------
 ------------------------------------------------------------------------
  current input line : 
     0: 
 ------------------------------------------------------------------------
 ------------------------------------------------------------------------
 There is an error in the input file
 ------------------------------------------------------------------------
 For more information see the NWChem manual at https://nwchemgit.github.io


 For further details see manual section:                                                                                                                                                                                                                                                                
 scf: no. of closed-shell electrons is not even!                   0
 ------------------------------------------------------------------------
 ------------------------------------------------------------------------
  current input line : 
     0: 
 ------------------------------------------------------------------------
 ------------------------------------------------------------------------
 There is an error in the input file
 ------------------------------------------------------------------------
 For more information see the NWChem manual at https://nwchemgit.github.io


 For further details see manual section:                                                                                                                                                                                                                                                                
 scf: no. of closed-shell electrons is not even!                   0
 ------------------------------------------------------------------------
 ------------------------------------------------------------------------
  current input line : 
     0: 
 ------------------------------------------------------------------------
 ------------------------------------------------------------------------
 There is an error in the input file
 ------------------------------------------------------------------------
 For more information see the NWChem manual at https://nwchemgit.github.io


 For further details see manual section:                                                                                                                                                                                                                                                                
 scf: no. of closed-shell electrons is not even!                   0
 ------------------------------------------------------------------------
 ------------------------------------------------------------------------
  current input line : 
     0: 
 ------------------------------------------------------------------------
 ------------------------------------------------------------------------
 There is an error in the input file
 ------------------------------------------------------------------------
 For more information see the NWChem manual at https://nwchemgit.github.io


 For further details see manual section:                                                                                                                                                                                                                                                                
     0: 
 ------------------------------------------------------------------------
 ------------------------------------------------------------------------
 There is an error in the input file
 ------------------------------------------------------------------------
 For more information see the NWChem manual at https://nwchemgit.github.io


 For further details see manual section:                                                                                                                                                                                                                                                                
1:scf: no. of closed-shell electrons is not even!:Received an Error in Communication
 ------------------------------------------------------------------------
 There is an error in the input file
 ------------------------------------------------------------------------
 For more information see the NWChem manual at https://nwchemgit.github.io


 For further details see manual section:                                                                                                                                                                                                                                                                
2:scf: no. of closed-shell electrons is not even!:Received an Error in Communication
 For more information see the NWChem manual at https://nwchemgit.github.io


 For further details see manual section:                                                                                                                                                                                                                                                                
3:scf: no. of closed-shell electrons is not even!:Received an Error in Communication
4:scf: no. of closed-shell electrons is not even!:Received an Error in Communication
5:scf: no. of closed-shell electrons is not even!:Received an Error in Communication
6:scf: no. of closed-shell electrons is not even!:Received an Error in Communication
7:scf: no. of closed-shell electrons is not even!:Received an Error in Communication
 scf: no. of closed-shell electrons is not even!                   0
 ------------------------------------------------------------------------
 ------------------------------------------------------------------------
  current input line : 
    47: task scf energy
 ------------------------------------------------------------------------
 ------------------------------------------------------------------------
 There is an error in the input file
 ------------------------------------------------------------------------
 For more information see the NWChem manual at https://nwchemgit.github.io


 For further details see manual section:                                                                                                                                                                                                                                                                
0:scf: no. of closed-shell electrons is not even!:Received an Error in Communication
--------------------------------------------------------------------------
MPI_ABORT was invoked on rank 0 in communicator MPI COMMUNICATOR 3 DUP FROM 0
with errorcode -1.

NOTE: invoking MPI_ABORT causes Open MPI to kill all MPI processes.
You may or may not see output from other processes, depending on
exactly when Open MPI kills them.
--------------------------------------------------------------------------
--------------------------------------------------------------------------
MPI_ABORT was invoked on rank 3 in communicator MPI COMMUNICATOR 3 DUP FROM 0
with errorcode -1.

NOTE: invoking MPI_ABORT causes Open MPI to kill all MPI processes.
You may or may not see output from other processes, depending on
exactly when Open MPI kills them.
--------------------------------------------------------------------------
--------------------------------------------------------------------------
MPI_ABORT was invoked on rank 4 in communicator MPI COMMUNICATOR 3 DUP FROM 0
with errorcode -1.

NOTE: invoking MPI_ABORT causes Open MPI to kill all MPI processes.
You may or may not see output from other processes, depending on
exactly when Open MPI kills them.
--------------------------------------------------------------------------
--------------------------------------------------------------------------
MPI_ABORT was invoked on rank 5 in communicator MPI COMMUNICATOR 3 DUP FROM 0
with errorcode -1.

NOTE: invoking MPI_ABORT causes Open MPI to kill all MPI processes.
You may or may not see output from other processes, depending on
exactly when Open MPI kills them.
--------------------------------------------------------------------------
--------------------------------------------------------------------------
MPI_ABORT was invoked on rank 2 in communicator MPI COMMUNICATOR 3 DUP FROM 0
with errorcode -1.

NOTE: invoking MPI_ABORT causes Open MPI to kill all MPI processes.
You may or may not see output from other processes, depending on
exactly when Open MPI kills them.
--------------------------------------------------------------------------
--------------------------------------------------------------------------
MPI_ABORT was invoked on rank 1 in communicator MPI COMMUNICATOR 3 DUP FROM 0
with errorcode -1.

NOTE: invoking MPI_ABORT causes Open MPI to kill all MPI processes.
You may or may not see output from other processes, depending on
exactly when Open MPI kills them.
--------------------------------------------------------------------------
--------------------------------------------------------------------------
MPI_ABORT was invoked on rank 7 in communicator MPI COMMUNICATOR 3 DUP FROM 0
with errorcode -1.

NOTE: invoking MPI_ABORT causes Open MPI to kill all MPI processes.
You may or may not see output from other processes, depending on
exactly when Open MPI kills them.
--------------------------------------------------------------------------
--------------------------------------------------------------------------
MPI_ABORT was invoked on rank 6 in communicator MPI COMMUNICATOR 3 DUP FROM 0
with errorcode -1.

NOTE: invoking MPI_ABORT causes Open MPI to kill all MPI processes.
You may or may not see output from other processes, depending on
exactly when Open MPI kills them.
--------------------------------------------------------------------------
slurmstepd: error: *** STEP 6619389.98 ON nova21-swift-1 CANCELLED AT 2025-07-10T22:20:18 ***
srun: Job step aborted: Waiting up to 32 seconds for job step to finish.
slurmstepd: error: --task-epilog failed status=9
srun: error: nova21-swift-1: tasks 0-7: Killed
