export TMOUT=5400
export TMPDIR=/tmp
export PTMPDIR=/tmp/ptmp
 argument  1 = inputs/ASP_ASN_1.nw



============================== echo of input deck ==============================
start ASP_ASN_1
geometry
H          6.12300        8.04900       -0.07400
C          5.98400        6.97100       -0.09300
H          4.93300        6.73400       -0.24600
H          6.32800        6.53700        0.84500
C          6.79000        6.39000       -1.22800
O          6.23200        5.77900       -2.13000
N          8.10500        6.56000       -1.15700
H          8.48800        6.95400       -0.30600
C          9.08700        5.96900       -2.07800
H          8.84000        6.25600       -3.10000
C         10.49300        6.51400       -1.73700
H         11.21600        6.03800       -2.40200
H         10.50200        7.58300       -1.96000
C         10.96100        6.33000       -0.27800
O         10.13700        5.96600        0.60000
O         12.16600        6.53100       -0.03300
C          9.08400        4.42900       -2.02000
O          9.10900        3.75300       -3.04500
N          8.97900        3.88200       -0.80900
H          9.05800        4.53200       -0.03200
C          8.82300        2.46100       -0.50300
H          9.45900        1.89100       -1.18300
C          9.32400        2.22900        0.93800
H          8.84600        2.93200        1.61800
H          9.05600        1.22000        1.25100
C         10.83500        2.34500        1.07100
O         11.54800        1.35600        1.04000
N         11.38200        3.52700        1.23500
H         12.38200        3.57700        1.23400
H         10.84500        4.39300        1.16800
C          7.37900        1.94700       -0.73100
O          7.02900        0.84400       -0.32300
N          6.49600        2.72200       -1.35200
H          5.56600        2.37200       -1.49600
H          6.77800        3.62200       -1.71700
end

basis
 * library aug-cc-pvdz
end

echo

scf
 direct
end

task scf energy
================================================================================


                                         
                                         


             Northwest Computational Chemistry Package (NWChem) 7.2.0
             --------------------------------------------------------


                    Environmental Molecular Sciences Laboratory
                       Pacific Northwest National Laboratory
                                Richland, WA 99352

                              Copyright (c) 1994-2022
                       Pacific Northwest National Laboratory
                            Battelle Memorial Institute

             NWChem is an open-source computational chemistry package
                        distributed under the terms of the
                      Educational Community License (ECL) 2.0
             A copy of the license is included with this distribution
                              in the LICENSE.TXT file

                                  ACKNOWLEDGMENT
                                  --------------

            This software and its documentation were developed at the
            EMSL at Pacific Northwest National Laboratory, a multiprogram
            national laboratory, operated for the U.S. Department of Energy
            by Battelle under Contract Number DE-AC05-76RL01830. Support
            for this work was provided by the Department of Energy Office
            of Biological and Environmental Research, Office of Basic
            Energy Sciences, and the Office of Advanced Scientific Computing.


           Job information
           ---------------

    hostname        = nova21-swift-2
    program         = /opt/rit/el9/20230413/app/linux-rhel9-x86_64_v3/gcc-11.2.1/nwchem-7.2.0-oxtctbuhfuzyfaoziquq6bki22grib3g/bin/nwchem
    date            = Thu Jul 10 14:03:18 2025

    compiled        = Wed_May_17_23:46:39_2023
    source          = /tmp/root/spack-stage/spack-stage-nwchem-7.2.0-oxtctbuhfuzyfaoziquq6bki22grib3g/spack-src
    nwchem branch   = 7.2.0
    nwchem revision = d0d141fd
    ga revision     = 5.8.0
    use scalapack   = T
    input           = inputs/ASP_ASN_1.nw
    prefix          = ASP_ASN_1.
    data base       = ./ASP_ASN_1.db
    status          = startup
    nproc           =        8
    time left       =     -1s



           Memory information
           ------------------

    heap     =   26214396 doubles =    200.0 Mbytes
    stack    =   26214401 doubles =    200.0 Mbytes
    global   =   52428800 doubles =    400.0 Mbytes (distinct from heap & stack)
    total    =  104857597 doubles =    800.0 Mbytes
    verify   = yes
    hardfail = no 


           Directory information
           ---------------------

  0 permanent = .
  0 scratch   = .




                                NWChem Input Module
                                -------------------



 Scaling coordinates for geometry "geometry" by  1.889725989
 (inverse scale =  0.529177249)

 C1  symmetry detected

          ------
          auto-z
          ------
  no constraints, skipping    0.0000000000000000     
  no constraints, skipping    0.0000000000000000     


                             Geometry "geometry" -> ""
                             -------------------------

 Output coordinates in angstroms (scale by  1.889725989 to convert to a.u.)

  No.       Tag          Charge          X              Y              Z
 ---- ---------------- ---------- -------------- -------------- --------------
    1 H                    1.0000    -0.02496602     4.11181767     2.28135481
    2 C                    6.0000    -0.76658921     3.34257630     2.08128290
    3 H                    1.0000    -1.76619708     3.73430684     2.25879429
    4 H                    1.0000    -0.58804466     2.48067155     2.72298225
    5 C                    6.0000    -0.65488842     2.91327677     0.63953159
    6 O                    8.0000    -1.60623089     3.04833343    -0.11875346
    7 N                    7.0000     0.50185697     2.36905890     0.28045916
    8 H                    1.0000     1.17905662     2.16959881     1.00691790
    9 C                    6.0000     0.78369261     1.76463875    -1.02991902
   10 H                    1.0000     0.58254194     2.49474687    -1.81371908
   11 C                    6.0000     2.27663702     1.36823983    -1.09415968
   12 H                    1.0000     2.46253287     0.88628487    -2.05576883
   13 H                    1.0000     2.86893235     2.28542509    -1.07117191
   14 C                    6.0000     2.78703164     0.44579499     0.03285134
   15 O                    8.0000     2.06737506     0.23938709     1.04371542
   16 O                    8.0000     3.90361636    -0.08485009    -0.12240770
   17 C                    6.0000    -0.10591643     0.53702377    -1.30656000
   18 O                    8.0000    -0.65215899     0.37861986    -2.39502372
   19 N                    7.0000    -0.30435427    -0.29349106    -0.28302566
   20 H                    1.0000     0.26774413    -0.11404992     0.53732445
   21 C                    6.0000    -1.20461952    -1.44497628    -0.25443770
   22 H                    1.0000    -1.14518597    -1.95194557    -1.21944847
   23 C                    6.0000    -0.69896582    -2.41464526     0.83430579
   24 H                    1.0000    -0.55527956    -1.88161018     1.77255994
   25 H                    1.0000    -1.44715401    -3.19030294     0.99692071
   26 C                    6.0000     0.59262839    -3.12144126     0.45156592
   27 O                    8.0000     0.57840019    -4.23813649    -0.03857726
   28 N                    7.0000     1.74368549    -2.52693255     0.66335811
   29 H                    1.0000     2.56791561    -2.98234084     0.32313904
   30 H                    1.0000     1.80975867    -1.55707708     0.97613391
   31 C                    6.0000    -2.69072385    -1.04779303    -0.06720680
   32 O                    8.0000    -3.54289797    -1.89214548     0.19055512
   33 N                    7.0000    -3.04599189     0.22950786    -0.15799250
   34 H                    1.0000    -4.01367497     0.46938108    -0.03888626
   35 H                    1.0000    -2.35890267     0.93225780    -0.39631988

      Atomic Mass 
      ----------- 

      H                  1.007825
      C                 12.000000
      O                 15.994910
      N                 14.003070


 Effective nuclear repulsion energy (a.u.)    1720.4740836129

            Nuclear Dipole moment (a.u.) 
            ----------------------------
        X                 Y               Z
 ---------------- ---------------- ----------------
    -0.0000000000    -0.0000000000     0.0000000000



                                Z-matrix (autoz)
                                -------- 

 Units are Angstrom for bonds and degrees for angles

      Type          Name      I     J     K     L     M      Value
      ----------- --------  ----- ----- ----- ----- ----- ----------
    1 Stretch                  1     2                       1.08709
    2 Stretch                  2     3                       1.08820
    3 Stretch                  2     4                       1.08928
    4 Stretch                  2     5                       1.50845
    5 Stretch                  5     6                       1.22405
    6 Stretch                  5     7                       1.32784
    7 Stretch                  7     8                       1.01298
    8 Stretch                  7     9                       1.47032
    9 Stretch                  9    10                       1.08989
   10 Stretch                  9    11                       1.54601
   11 Stretch                  9    17                       1.54109
   12 Stretch                 11    12                       1.09157
   13 Stretch                 11    13                       1.09205
   14 Stretch                 11    14                       1.54323
   15 Stretch                 14    15                       1.25792
   16 Stretch                 14    16                       1.24597
   17 Stretch                 17    18                       1.22810
   18 Stretch                 17    19                       1.33295
   19 Stretch                 19    20                       1.01611
   20 Stretch                 19    21                       1.46192
   21 Stretch                 21    22                       1.09169
   22 Stretch                 21    23                       1.54315
   23 Stretch                 21    31                       1.54962
   24 Stretch                 23    24                       1.08862
   25 Stretch                 23    25                       1.08990
   26 Stretch                 23    26                       1.52127
   27 Stretch                 26    27                       1.21961
   28 Stretch                 26    28                       1.31272
   29 Stretch                 28    29                       1.00125
   30 Stretch                 28    30                       1.02118
   31 Stretch                 31    32                       1.22702
   32 Stretch                 31    33                       1.32889
   33 Stretch                 33    34                       1.00406
   34 Stretch                 33    35                       1.01131
   35 Bend                     1     2     3               109.99391
   36 Bend                     1     2     4               109.85647
   37 Bend                     1     2     5               109.07301
   38 Bend                     2     5     6               120.20828
   39 Bend                     2     5     7               116.07910
   40 Bend                     3     2     4               109.83466
   41 Bend                     3     2     5               109.04930
   42 Bend                     4     2     5               109.00966
   43 Bend                     5     7     8               117.97930
   44 Bend                     5     7     9               125.20244
   45 Bend                     6     5     7               123.69453
   46 Bend                     7     9    10               109.27897
   47 Bend                     7     9    11               109.11940
   48 Bend                     7     9    17               112.13514
   49 Bend                     8     7     9               115.47075
   50 Bend                     9    11    12               108.31665
   51 Bend                     9    11    13               107.91072
   52 Bend                     9    11    14               116.25036
   53 Bend                     9    17    18               121.23854
   54 Bend                     9    17    19               116.38638
   55 Bend                    10     9    11               108.66922
   56 Bend                    10     9    17               107.33704
   57 Bend                    11     9    17               110.22694
   58 Bend                    11    14    15               119.71813
   59 Bend                    11    14    16               117.38413
   60 Bend                    12    11    13               107.27766
   61 Bend                    12    11    14               108.85085
   62 Bend                    13    11    14               107.89493
   63 Bend                    15    14    16               122.88429
   64 Bend                    17    19    20               115.21960
   65 Bend                    17    19    21               126.68755
   66 Bend                    18    17    19               122.27502
   67 Bend                    19    21    22               108.35867
   68 Bend                    19    21    23               107.87538
   69 Bend                    19    21    31               113.01979
   70 Bend                    20    19    21               118.03618
   71 Bend                    21    23    24               110.09969
   72 Bend                    21    23    25               109.11855
   73 Bend                    21    23    26               113.11917
   74 Bend                    21    31    32               121.00070
   75 Bend                    21    31    33               119.63609
   76 Bend                    22    21    23               108.30136
   77 Bend                    22    21    31               106.14331
   78 Bend                    23    21    31               112.95817
   79 Bend                    23    26    27               121.10509
   80 Bend                    23    26    28               119.56829
   81 Bend                    24    23    25               108.08836
   82 Bend                    24    23    26               109.40670
   83 Bend                    25    23    26               106.84116
   84 Bend                    26    28    29               117.45247
   85 Bend                    26    28    30               122.43016
   86 Bend                    27    26    28               119.32327
   87 Bend                    29    28    30               118.86779
   88 Bend                    31    33    34               118.63187
   89 Bend                    31    33    35               120.15754
   90 Bend                    32    31    33               119.34709
   91 Bend                    34    33    35               121.11342
   92 Torsion                  1     2     5     6        -119.46393
   93 Torsion                  1     2     5     7          62.02701
   94 Torsion                  2     5     7     8           7.65123
   95 Torsion                  2     5     7     9         173.75777
   96 Torsion                  3     2     5     6           0.67681
   97 Torsion                  3     2     5     7        -177.83224
   98 Torsion                  4     2     5     6         120.58613
   99 Torsion                  4     2     5     7         -57.92293
  100 Torsion                  5     7     9    10          56.00994
  101 Torsion                  5     7     9    11         174.70682
  102 Torsion                  5     7     9    17         -62.87791
  103 Torsion                  6     5     7     8        -170.80011
  104 Torsion                  6     5     7     9          -4.69358
  105 Torsion                  7     9    11    12         177.82419
  106 Torsion                  7     9    11    13         -66.34091
  107 Torsion                  7     9    11    14          54.95383
  108 Torsion                  7     9    17    18         135.22738
  109 Torsion                  7     9    17    19         -41.21534
  110 Torsion                  8     7     9    10        -137.57468
  111 Torsion                  8     7     9    11         -18.87779
  112 Torsion                  8     7     9    17         103.53748
  113 Torsion                  9    11    14    15         -11.58346
  114 Torsion                  9    11    14    16         167.12146
  115 Torsion                  9    17    19    20          -9.21140
  116 Torsion                  9    17    19    21         173.59938
  117 Torsion                 10     9    11    12         -63.09893
  118 Torsion                 10     9    11    13          52.73596
  119 Torsion                 10     9    11    14         174.03070
  120 Torsion                 10     9    17    18          15.20179
  121 Torsion                 10     9    17    19        -161.24093
  122 Torsion                 11     9    17    18        -102.98861
  123 Torsion                 11     9    17    19          80.56868
  124 Torsion                 12    11     9    17          54.26960
  125 Torsion                 12    11    14    15        -134.17438
  126 Torsion                 12    11    14    16          44.53054
  127 Torsion                 13    11     9    17         170.10449
  128 Torsion                 13    11    14    15         109.71968
  129 Torsion                 13    11    14    16         -71.57540
  130 Torsion                 14    11     9    17         -68.60077
  131 Torsion                 17    19    21    22          39.68597
  132 Torsion                 17    19    21    23         156.72933
  133 Torsion                 17    19    21    31         -77.65574
  134 Torsion                 18    17    19    20         174.38600
  135 Torsion                 18    17    19    21          -2.80323
  136 Torsion                 19    21    23    24          51.56562
  137 Torsion                 19    21    23    25         170.04036
  138 Torsion                 19    21    23    26         -71.18265
  139 Torsion                 19    21    31    32        -168.25704
  140 Torsion                 19    21    31    33          10.27259
  141 Torsion                 20    19    21    22        -137.43304
  142 Torsion                 20    19    21    23         -20.38968
  143 Torsion                 20    19    21    31         105.22525
  144 Torsion                 21    23    26    27         -96.20666
  145 Torsion                 21    23    26    28          84.46318
  146 Torsion                 21    31    33    34         179.68344
  147 Torsion                 21    31    33    35           3.22733
  148 Torsion                 22    21    23    24         168.64615
  149 Torsion                 22    21    23    25         -72.87911
  150 Torsion                 22    21    23    26          45.89787
  151 Torsion                 22    21    31    32          73.10673
  152 Torsion                 22    21    31    33        -108.36363
  153 Torsion                 23    21    31    32         -45.42487
  154 Torsion                 23    21    31    33         133.10477
  155 Torsion                 23    26    28    29        -174.47233
  156 Torsion                 23    26    28    30          -7.39935
  157 Torsion                 24    23    21    31         -74.08578
  158 Torsion                 24    23    26    27         140.66098
  159 Torsion                 24    23    26    28         -38.66918
  160 Torsion                 25    23    21    31          44.38896
  161 Torsion                 25    23    26    27          23.88038
  162 Torsion                 25    23    26    28        -155.44977
  163 Torsion                 26    23    21    31         163.16594
  164 Torsion                 27    26    28    29           6.18549
  165 Torsion                 27    26    28    30         173.25848
  166 Torsion                 32    31    33    34          -1.76245
  167 Torsion                 32    31    33    35        -178.21856


            XYZ format geometry
            -------------------
    35
 geometry
 H                    -0.02496602     4.11181767     2.28135481
 C                    -0.76658921     3.34257630     2.08128290
 H                    -1.76619708     3.73430684     2.25879429
 H                    -0.58804466     2.48067155     2.72298225
 C                    -0.65488842     2.91327677     0.63953159
 O                    -1.60623089     3.04833343    -0.11875346
 N                     0.50185697     2.36905890     0.28045916
 H                     1.17905662     2.16959881     1.00691790
 C                     0.78369261     1.76463875    -1.02991902
 H                     0.58254194     2.49474687    -1.81371908
 C                     2.27663702     1.36823983    -1.09415968
 H                     2.46253287     0.88628487    -2.05576883
 H                     2.86893235     2.28542509    -1.07117191
 C                     2.78703164     0.44579499     0.03285134
 O                     2.06737506     0.23938709     1.04371542
 O                     3.90361636    -0.08485009    -0.12240770
 C                    -0.10591643     0.53702377    -1.30656000
 O                    -0.65215899     0.37861986    -2.39502372
 N                    -0.30435427    -0.29349106    -0.28302566
 H                     0.26774413    -0.11404992     0.53732445
 C                    -1.20461952    -1.44497628    -0.25443770
 H                    -1.14518597    -1.95194557    -1.21944847
 C                    -0.69896582    -2.41464526     0.83430579
 H                    -0.55527956    -1.88161018     1.77255994
 H                    -1.44715401    -3.19030294     0.99692071
 C                     0.59262839    -3.12144126     0.45156592
 O                     0.57840019    -4.23813649    -0.03857726
 N                     1.74368549    -2.52693255     0.66335811
 H                     2.56791561    -2.98234084     0.32313904
 H                     1.80975867    -1.55707708     0.97613391
 C                    -2.69072385    -1.04779303    -0.06720680
 O                    -3.54289797    -1.89214548     0.19055512
 N                    -3.04599189     0.22950786    -0.15799250
 H                    -4.01367497     0.46938108    -0.03888626
 H                    -2.35890267     0.93225780    -0.39631988

 ==============================================================================
                                internuclear distances
 ------------------------------------------------------------------------------
       center one      |      center two      | atomic units |  angstroms
 ------------------------------------------------------------------------------
    2 C                |   1 H                |     2.05430  |     1.08709
    3 H                |   2 C                |     2.05640  |     1.08820
    4 H                |   2 C                |     2.05845  |     1.08928
    5 C                |   2 C                |     2.85056  |     1.50845
    6 O                |   5 C                |     2.31311  |     1.22405
    7 N                |   5 C                |     2.50926  |     1.32784
    8 H                |   7 N                |     1.91425  |     1.01298
    9 C                |   7 N                |     2.77851  |     1.47032
   10 H                |   9 C                |     2.05960  |     1.08989
   11 C                |   9 C                |     2.92153  |     1.54601
   12 H                |  11 C                |     2.06277  |     1.09157
   13 H                |  11 C                |     2.06367  |     1.09205
   14 C                |  11 C                |     2.91628  |     1.54323
   15 O                |  14 C                |     2.37712  |     1.25792
   16 O                |  14 C                |     2.35455  |     1.24597
   17 C                |   9 C                |     2.91225  |     1.54109
   18 O                |  17 C                |     2.32077  |     1.22810
   19 N                |  17 C                |     2.51891  |     1.33295
   20 H                |  19 N                |     1.92016  |     1.01611
   21 C                |  19 N                |     2.76263  |     1.46192
   22 H                |  21 C                |     2.06300  |     1.09169
   23 C                |  21 C                |     2.91613  |     1.54315
   24 H                |  23 C                |     2.05719  |     1.08862
   25 H                |  23 C                |     2.05961  |     1.08990
   26 C                |  23 C                |     2.87479  |     1.52127
   27 O                |  26 C                |     2.30473  |     1.21961
   28 N                |  26 C                |     2.48068  |     1.31272
   29 H                |  28 N                |     1.89209  |     1.00125
   30 H                |  28 N                |     1.92976  |     1.02118
   31 C                |  21 C                |     2.92835  |     1.54962
   32 O                |  31 C                |     2.31873  |     1.22702
   33 N                |  31 C                |     2.51124  |     1.32889
   34 H                |  33 N                |     1.89740  |     1.00406
   35 H                |  33 N                |     1.91110  |     1.01131
 ------------------------------------------------------------------------------
                         number of included internuclear distances:         34
 ==============================================================================



 ==============================================================================
                                 internuclear angles
 ------------------------------------------------------------------------------
        center 1       |       center 2       |       center 3       |  degrees
 ------------------------------------------------------------------------------
    1 H                |   2 C                |   3 H                |   109.99
    1 H                |   2 C                |   4 H                |   109.86
    1 H                |   2 C                |   5 C                |   109.07
    3 H                |   2 C                |   4 H                |   109.83
    3 H                |   2 C                |   5 C                |   109.05
    4 H                |   2 C                |   5 C                |   109.01
    2 C                |   5 C                |   6 O                |   120.21
    2 C                |   5 C                |   7 N                |   116.08
    6 O                |   5 C                |   7 N                |   123.69
    5 C                |   7 N                |   8 H                |   117.98
    5 C                |   7 N                |   9 C                |   125.20
    8 H                |   7 N                |   9 C                |   115.47
    7 N                |   9 C                |  10 H                |   109.28
    7 N                |   9 C                |  11 C                |   109.12
    7 N                |   9 C                |  17 C                |   112.14
   10 H                |   9 C                |  11 C                |   108.67
   10 H                |   9 C                |  17 C                |   107.34
   11 C                |   9 C                |  17 C                |   110.23
    9 C                |  11 C                |  12 H                |   108.32
    9 C                |  11 C                |  13 H                |   107.91
    9 C                |  11 C                |  14 C                |   116.25
   12 H                |  11 C                |  13 H                |   107.28
   12 H                |  11 C                |  14 C                |   108.85
   13 H                |  11 C                |  14 C                |   107.89
   11 C                |  14 C                |  15 O                |   119.72
   11 C                |  14 C                |  16 O                |   117.38
   15 O                |  14 C                |  16 O                |   122.88
    9 C                |  17 C                |  18 O                |   121.24
    9 C                |  17 C                |  19 N                |   116.39
   18 O                |  17 C                |  19 N                |   122.28
   17 C                |  19 N                |  20 H                |   115.22
   17 C                |  19 N                |  21 C                |   126.69
   20 H                |  19 N                |  21 C                |   118.04
   19 N                |  21 C                |  22 H                |   108.36
   19 N                |  21 C                |  23 C                |   107.88
   19 N                |  21 C                |  31 C                |   113.02
   22 H                |  21 C                |  23 C                |   108.30
   22 H                |  21 C                |  31 C                |   106.14
   23 C                |  21 C                |  31 C                |   112.96
   21 C                |  23 C                |  24 H                |   110.10
   21 C                |  23 C                |  25 H                |   109.12
   21 C                |  23 C                |  26 C                |   113.12
   24 H                |  23 C                |  25 H                |   108.09
   24 H                |  23 C                |  26 C                |   109.41
   25 H                |  23 C                |  26 C                |   106.84
   23 C                |  26 C                |  27 O                |   121.11
   23 C                |  26 C                |  28 N                |   119.57
   27 O                |  26 C                |  28 N                |   119.32
   26 C                |  28 N                |  29 H                |   117.45
   26 C                |  28 N                |  30 H                |   122.43
   29 H                |  28 N                |  30 H                |   118.87
   21 C                |  31 C                |  32 O                |   121.00
   21 C                |  31 C                |  33 N                |   119.64
   32 O                |  31 C                |  33 N                |   119.35
   31 C                |  33 N                |  34 H                |   118.63
   31 C                |  33 N                |  35 H                |   120.16
   34 H                |  33 N                |  35 H                |   121.11
 ------------------------------------------------------------------------------
                            number of included internuclear angles:         57
 ==============================================================================



  library name resolved from: environment
  library file name is: </opt/rit/el9/20230413/app/linux-rhel9-x86_64_v3/gcc-11.2.1/nwchem-7.2.0-oxtctbuhfuzyfaoziquq6bki22grib3g/share/nwchem/libraries/>
  


 Summary of "ao basis" -> "" (cartesian)
 ------------------------------------------------------------------------------
       Tag                 Description            Shells   Functions and Types
 ---------------- ------------------------------  ------  ---------------------
 *                        aug-cc-pvdz                 on all atoms 


                      Basis "ao basis" -> "ao basis" (cartesian)
                      -----
  H (Hydrogen)
  ------------
            Exponent  Coefficients 
       -------------- ---------------------------------------------------------
  1 S  1.30100000E+01  0.019685
  1 S  1.96200000E+00  0.137977
  1 S  4.44600000E-01  0.478148

  2 S  1.22000000E-01  1.000000

  3 S  2.97400000E-02  1.000000

  4 P  7.27000000E-01  1.000000

  5 P  1.41000000E-01  1.000000

  C (Carbon)
  ----------
            Exponent  Coefficients 
       -------------- ---------------------------------------------------------
  1 S  6.66500000E+03  0.000692
  1 S  1.00000000E+03  0.005329
  1 S  2.28000000E+02  0.027077
  1 S  6.47100000E+01  0.101718
  1 S  2.10600000E+01  0.274740
  1 S  7.49500000E+00  0.448564
  1 S  2.79700000E+00  0.285074
  1 S  5.21500000E-01  0.015204

  2 S  6.66500000E+03 -0.000146
  2 S  1.00000000E+03 -0.001154
  2 S  2.28000000E+02 -0.005725
  2 S  6.47100000E+01 -0.023312
  2 S  2.10600000E+01 -0.063955
  2 S  7.49500000E+00 -0.149981
  2 S  2.79700000E+00 -0.127262
  2 S  5.21500000E-01  0.544529

  3 S  1.59600000E-01  1.000000

  4 S  4.69000000E-02  1.000000

  5 P  9.43900000E+00  0.038109
  5 P  2.00200000E+00  0.209480
  5 P  5.45600000E-01  0.508557

  6 P  1.51700000E-01  1.000000

  7 P  4.04100000E-02  1.000000

  8 D  5.50000000E-01  1.000000

  9 D  1.51000000E-01  1.000000

  O (Oxygen)
  ----------
            Exponent  Coefficients 
       -------------- ---------------------------------------------------------
  1 S  1.17200000E+04  0.000710
  1 S  1.75900000E+03  0.005470
  1 S  4.00800000E+02  0.027837
  1 S  1.13700000E+02  0.104800
  1 S  3.70300000E+01  0.283062
  1 S  1.32700000E+01  0.448719
  1 S  5.02500000E+00  0.270952
  1 S  1.01300000E+00  0.015458

  2 S  1.17200000E+04 -0.000160
  2 S  1.75900000E+03 -0.001263
  2 S  4.00800000E+02 -0.006267
  2 S  1.13700000E+02 -0.025716
  2 S  3.70300000E+01 -0.070924
  2 S  1.32700000E+01 -0.165411
  2 S  5.02500000E+00 -0.116955
  2 S  1.01300000E+00  0.557368

  3 S  3.02300000E-01  1.000000

  4 S  7.89600000E-02  1.000000

  5 P  1.77000000E+01  0.043018
  5 P  3.85400000E+00  0.228913
  5 P  1.04600000E+00  0.508728

  6 P  2.75300000E-01  1.000000

  7 P  6.85600000E-02  1.000000

  8 D  1.18500000E+00  1.000000

  9 D  3.32000000E-01  1.000000

  N (Nitrogen)
  ------------
            Exponent  Coefficients 
       -------------- ---------------------------------------------------------
  1 S  9.04600000E+03  0.000700
  1 S  1.35700000E+03  0.005389
  1 S  3.09300000E+02  0.027406
  1 S  8.77300000E+01  0.103207
  1 S  2.85600000E+01  0.278723
  1 S  1.02100000E+01  0.448540
  1 S  3.83800000E+00  0.278238
  1 S  7.46600000E-01  0.015440

  2 S  9.04600000E+03 -0.000153
  2 S  1.35700000E+03 -0.001208
  2 S  3.09300000E+02 -0.005992
  2 S  8.77300000E+01 -0.024544
  2 S  2.85600000E+01 -0.067459
  2 S  1.02100000E+01 -0.158078
  2 S  3.83800000E+00 -0.121831
  2 S  7.46600000E-01  0.549003

  3 S  2.24800000E-01  1.000000

  4 S  6.12400000E-02  1.000000

  5 P  1.35500000E+01  0.039919
  5 P  2.91700000E+00  0.217169
  5 P  7.97300000E-01  0.510319

  6 P  2.18500000E-01  1.000000

  7 P  5.61100000E-02  1.000000

  8 D  8.17000000E-01  1.000000

  9 D  2.30000000E-01  1.000000



 Summary of "ao basis" -> "ao basis" (cartesian)
 ------------------------------------------------------------------------------
       Tag                 Description            Shells   Functions and Types
 ---------------- ------------------------------  ------  ---------------------
 H                        aug-cc-pvdz                5        9   3s2p
 C                        aug-cc-pvdz                9       25   4s3p2d
 O                        aug-cc-pvdz                9       25   4s3p2d
 N                        aug-cc-pvdz                9       25   4s3p2d


 ------------------------------------------------------------------------
 scf: no. of closed-shell electrons is not even!                   0
 ------------------------------------------------------------------------
 ------------------------------------------------------------------------
  current input line : 
 scf: no. of closed-shell electrons is not even!                   0
 ------------------------------------------------------------------------
 ------------------------------------------------------------------------
  current input line : 
     0: 
 scf: no. of closed-shell electrons is not even!                   0
 ------------------------------------------------------------------------
 ------------------------------------------------------------------------
  current input line : 
     0: 
 ------------------------------------------------------------------------
 ------------------------------------------------------------------------
 There is an error in the input file
 scf: no. of closed-shell electrons is not even!                   0
 ------------------------------------------------------------------------
 ------------------------------------------------------------------------
  current input line : 
     0: 
 ------------------------------------------------------------------------
 ------------------------------------------------------------------------
 There is an error in the input file
 ------------------------------------------------------------------------
 For more information see the NWChem manual at https://nwchemgit.github.io


 For further details see manual section:                                                                                                                                                                                                                                                                
 scf: no. of closed-shell electrons is not even!                   0
 ------------------------------------------------------------------------
 ------------------------------------------------------------------------
  current input line : 
     0: 
 ------------------------------------------------------------------------
 ------------------------------------------------------------------------
 There is an error in the input file
 ------------------------------------------------------------------------
 For more information see the NWChem manual at https://nwchemgit.github.io


 For further details see manual section:                                                                                                                                                                                                                                                                
 scf: no. of closed-shell electrons is not even!                   0
 ------------------------------------------------------------------------
 ------------------------------------------------------------------------
  current input line : 
     0: 
 ------------------------------------------------------------------------
 ------------------------------------------------------------------------
 There is an error in the input file
 ------------------------------------------------------------------------
 For more information see the NWChem manual at https://nwchemgit.github.io


 For further details see manual section:                                                                                                                                                                                                                                                                
 scf: no. of closed-shell electrons is not even!                   0
 ------------------------------------------------------------------------
 ------------------------------------------------------------------------
  current input line : 
     0: 
 ------------------------------------------------------------------------
 ------------------------------------------------------------------------
 There is an error in the input file
 ------------------------------------------------------------------------
 For more information see the NWChem manual at https://nwchemgit.github.io


 For further details see manual section:                                                                                                                                                                                                                                                                
     0: 
 ------------------------------------------------------------------------
 ------------------------------------------------------------------------
 There is an error in the input file
 ------------------------------------------------------------------------
 For more information see the NWChem manual at https://nwchemgit.github.io


 For further details see manual section:                                                                                                                                                                                                                                                                
1:scf: no. of closed-shell electrons is not even!:Received an Error in Communication
 ------------------------------------------------------------------------
 ------------------------------------------------------------------------
 There is an error in the input file
 ------------------------------------------------------------------------
 For more information see the NWChem manual at https://nwchemgit.github.io


 For further details see manual section:                                                                                                                                                                                                                                                                
2:scf: no. of closed-shell electrons is not even!:Received an Error in Communication
 ------------------------------------------------------------------------
 For more information see the NWChem manual at https://nwchemgit.github.io


 For further details see manual section:                                                                                                                                                                                                                                                                
3:scf: no. of closed-shell electrons is not even!:Received an Error in Communication
4:scf: no. of closed-shell electrons is not even!:Received an Error in Communication
5:scf: no. of closed-shell electrons is not even!:Received an Error in Communication
6:scf: no. of closed-shell electrons is not even!:Received an Error in Communication
7:scf: no. of closed-shell electrons is not even!:Received an Error in Communication
 scf: no. of closed-shell electrons is not even!                   0
 ------------------------------------------------------------------------
 ------------------------------------------------------------------------
  current input line : 
    50: task scf energy
 ------------------------------------------------------------------------
 ------------------------------------------------------------------------
 There is an error in the input file
 ------------------------------------------------------------------------
 For more information see the NWChem manual at https://nwchemgit.github.io


 For further details see manual section:                                                                                                                                                                                                                                                                
0:scf: no. of closed-shell electrons is not even!:Received an Error in Communication
--------------------------------------------------------------------------
MPI_ABORT was invoked on rank 4 in communicator MPI COMMUNICATOR 3 DUP FROM 0
with errorcode -1.

NOTE: invoking MPI_ABORT causes Open MPI to kill all MPI processes.
You may or may not see output from other processes, depending on
exactly when Open MPI kills them.
--------------------------------------------------------------------------
--------------------------------------------------------------------------
MPI_ABORT was invoked on rank 6 in communicator MPI COMMUNICATOR 3 DUP FROM 0
with errorcode -1.

NOTE: invoking MPI_ABORT causes Open MPI to kill all MPI processes.
You may or may not see output from other processes, depending on
exactly when Open MPI kills them.
--------------------------------------------------------------------------
--------------------------------------------------------------------------
MPI_ABORT was invoked on rank 7 in communicator MPI COMMUNICATOR 3 DUP FROM 0
with errorcode -1.

NOTE: invoking MPI_ABORT causes Open MPI to kill all MPI processes.
You may or may not see output from other processes, depending on
exactly when Open MPI kills them.
--------------------------------------------------------------------------
--------------------------------------------------------------------------
MPI_ABORT was invoked on rank 0 in communicator MPI COMMUNICATOR 3 DUP FROM 0
with errorcode -1.

NOTE: invoking MPI_ABORT causes Open MPI to kill all MPI processes.
You may or may not see output from other processes, depending on
exactly when Open MPI kills them.
--------------------------------------------------------------------------
--------------------------------------------------------------------------
MPI_ABORT was invoked on rank 1 in communicator MPI COMMUNICATOR 3 DUP FROM 0
with errorcode -1.

NOTE: invoking MPI_ABORT causes Open MPI to kill all MPI processes.
You may or may not see output from other processes, depending on
exactly when Open MPI kills them.
--------------------------------------------------------------------------
--------------------------------------------------------------------------
MPI_ABORT was invoked on rank 2 in communicator MPI COMMUNICATOR 3 DUP FROM 0
with errorcode -1.

NOTE: invoking MPI_ABORT causes Open MPI to kill all MPI processes.
You may or may not see output from other processes, depending on
exactly when Open MPI kills them.
--------------------------------------------------------------------------
--------------------------------------------------------------------------
MPI_ABORT was invoked on rank 5 in communicator MPI COMMUNICATOR 3 DUP FROM 0
with errorcode -1.

NOTE: invoking MPI_ABORT causes Open MPI to kill all MPI processes.
You may or may not see output from other processes, depending on
exactly when Open MPI kills them.
--------------------------------------------------------------------------
--------------------------------------------------------------------------
MPI_ABORT was invoked on rank 3 in communicator MPI COMMUNICATOR 3 DUP FROM 0
with errorcode -1.

NOTE: invoking MPI_ABORT causes Open MPI to kill all MPI processes.
You may or may not see output from other processes, depending on
exactly when Open MPI kills them.
--------------------------------------------------------------------------
slurmstepd: error: *** STEP 6619389.87 ON nova21-swift-2 CANCELLED AT 2025-07-10T14:03:18 ***
srun: Job step aborted: Waiting up to 32 seconds for job step to finish.
slurmstepd: error: --task-epilog failed status=9
srun: error: nova21-swift-2: tasks 0-7: Killed
