export TMOUT=5400
export TMPDIR=/tmp
export PTMPDIR=/tmp/ptmp
 argument  1 = inputs/ASP_ASP_1.nw



============================== echo of input deck ==============================
start ASP_ASP_1
geometry
H          7.57600        9.99600       -0.75400
C          6.51300        9.76800       -0.73800
H          6.19900        9.37800       -1.70400
H          5.93700       10.65900       -0.49400
C          6.25300        8.71500        0.31100
O          7.19000        8.19800        0.90700
N          4.97600        8.42300        0.53100
H          4.26700        9.00500        0.09000
C          4.46900        7.47800        1.53700
H          4.95600        7.70400        2.48600
C          2.95000        7.69700        1.72100
H          2.43000        7.20900        0.89400
H          2.63500        7.20300        2.64200
C          2.50700        9.17000        1.74600
O          2.60500        9.83000        0.68100
O          2.06000        9.62800        2.82100
C          4.76100        5.99400        1.21700
O          4.70000        5.14700        2.10800
N          5.09400        5.68300       -0.04000
H          5.17300        6.44800       -0.69300
C          5.51000        4.36500       -0.54300
H          6.04700        3.84300        0.25000
C          4.27100        3.52100       -0.91900
H          3.57500        3.52700       -0.07800
H          3.77200        3.99100       -1.76800
C          4.57700        2.05200       -1.26300
O          3.71300        1.42300       -1.91500
O          5.67200        1.55800       -0.90000
C          6.47100        4.53700       -1.74200
O          6.54700        5.59400       -2.37100
N          7.23000        3.51000       -2.09300
H          7.83700        3.60200       -2.88600
H          7.06400        2.61800       -1.63400
end

basis
 * library aug-cc-pvdz
end

echo

scf
 direct
end

task scf energy
================================================================================


                                         
                                         


             Northwest Computational Chemistry Package (NWChem) 7.2.0
             --------------------------------------------------------


                    Environmental Molecular Sciences Laboratory
                       Pacific Northwest National Laboratory
                                Richland, WA 99352

                              Copyright (c) 1994-2022
                       Pacific Northwest National Laboratory
                            Battelle Memorial Institute

             NWChem is an open-source computational chemistry package
                        distributed under the terms of the
                      Educational Community License (ECL) 2.0
             A copy of the license is included with this distribution
                              in the LICENSE.TXT file

                                  ACKNOWLEDGMENT
                                  --------------

            This software and its documentation were developed at the
            EMSL at Pacific Northwest National Laboratory, a multiprogram
            national laboratory, operated for the U.S. Department of Energy
            by Battelle under Contract Number DE-AC05-76RL01830. Support
            for this work was provided by the Department of Energy Office
            of Biological and Environmental Research, Office of Basic
            Energy Sciences, and the Office of Advanced Scientific Computing.


           Job information
           ---------------

    hostname        = nova21-swift-1
    program         = /opt/rit/el9/20230413/app/linux-rhel9-x86_64_v3/gcc-11.2.1/nwchem-7.2.0-oxtctbuhfuzyfaoziquq6bki22grib3g/bin/nwchem
    date            = Thu Jul 10 17:10:02 2025

    compiled        = Wed_May_17_23:46:39_2023
    source          = /tmp/root/spack-stage/spack-stage-nwchem-7.2.0-oxtctbuhfuzyfaoziquq6bki22grib3g/spack-src
    nwchem branch   = 7.2.0
    nwchem revision = d0d141fd
    ga revision     = 5.8.0
    use scalapack   = T
    input           = inputs/ASP_ASP_1.nw
    prefix          = ASP_ASP_1.
    data base       = ./ASP_ASP_1.db
    status          = startup
    nproc           =        8
    time left       =     -1s



           Memory information
           ------------------

    heap     =   26214396 doubles =    200.0 Mbytes
    stack    =   26214401 doubles =    200.0 Mbytes
    global   =   52428800 doubles =    400.0 Mbytes (distinct from heap & stack)
    total    =  104857597 doubles =    800.0 Mbytes
    verify   = yes
    hardfail = no 


           Directory information
           ---------------------

  0 permanent = .
  0 scratch   = .




                                NWChem Input Module
                                -------------------



 Scaling coordinates for geometry "geometry" by  1.889725989
 (inverse scale =  0.529177249)

 C1  symmetry detected

          ------
          auto-z
          ------
  no constraints, skipping    0.0000000000000000     
  no constraints, skipping    0.0000000000000000     


                             Geometry "geometry" -> ""
                             -------------------------

 Output coordinates in angstroms (scale by  1.889725989 to convert to a.u.)

  No.       Tag          Charge          X              Y              Z
 ---- ---------------- ---------- -------------- -------------- --------------
    1 H                    1.0000     4.00548826     2.55420095    -0.20966471
    2 C                    6.0000     3.02820743     2.59274727    -0.68468613
    3 H                    1.0000     3.00623912     1.93386794    -1.55027692
    4 H                    1.0000     2.79377534     3.61131155    -0.98925369
    5 C                    6.0000     1.98537646     2.12442349     0.30019275
    6 O                    8.0000     2.32539184     1.69040522     1.39403537
    7 N                    7.0000     0.72359019     2.23369207    -0.10024301
    8 H                    1.0000     0.53561028     2.73622293    -0.96512004
    9 C                    6.0000    -0.46566543     1.89950824     0.69731717
   10 H                    1.0000    -0.35612767     2.36705868     1.67621659
   11 C                    6.0000    -1.71768867     2.50403598     0.02191950
   12 H                    1.0000    -2.00441909     1.85816827    -0.81061492
   13 H                    1.0000    -2.53990968     2.49608992     0.73982721
   14 C                    6.0000    -1.52984154     3.92596929    -0.53433774
   15 O                    8.0000    -0.76618293     4.07334686    -1.52152282
   16 O                    8.0000    -2.15791932     4.85712564     0.01671957
   17 C                    6.0000    -0.66447472     0.38500237     0.93536512
   18 O                    8.0000    -1.39921446    -0.00593322     1.84219359
   19 N                    7.0000    -0.00138470    -0.46147219     0.14072592
   20 H                    1.0000     0.62101518    -0.05389698    -0.54072535
   21 C                    6.0000     0.04027263    -1.92749543     0.25131313
   22 H                    1.0000    -0.03327482    -2.19969537     1.30497340
   23 C                    6.0000    -1.16217090    -2.55384858    -0.49074098
   24 H                    1.0000    -2.07664029    -2.06287387    -0.15247692
   25 H                    1.0000    -1.05449213    -2.35851851    -1.55889521
   26 C                    6.0000    -1.33392482    -4.06753380    -0.26895137
   27 O                    8.0000    -2.03109126    -4.69397342    -1.09887507
   28 O                    8.0000    -0.76001611    -4.60785923     0.70752558
   29 C                    6.0000     1.38740692    -2.45948642    -0.28990841
   30 O                    8.0000     2.10985425    -1.78133101    -1.02260282
   31 N                    7.0000     1.76469846    -3.68208056     0.05203555
   32 H                    1.0000     2.62355626    -4.04700195    -0.31533029
   33 H                    1.0000     1.09929143    -4.26009009     0.55902615

      Atomic Mass 
      ----------- 

      H                  1.007825
      C                 12.000000
      O                 15.994910
      N                 14.003070


 Effective nuclear repulsion energy (a.u.)    1599.0044587885

            Nuclear Dipole moment (a.u.) 
            ----------------------------
        X                 Y               Z
 ---------------- ---------------- ----------------
     0.0000000000    -0.0000000000    -0.0000000000



                                Z-matrix (autoz)
                                -------- 

 Units are Angstrom for bonds and degrees for angles

      Type          Name      I     J     K     L     M      Value
      ----------- --------  ----- ----- ----- ----- ----- ----------
    1 Stretch                  1     2                       1.08729
    2 Stretch                  2     3                       1.08805
    3 Stretch                  2     4                       1.08867
    4 Stretch                  2     5                       1.50891
    5 Stretch                  5     6                       1.22494
    6 Stretch                  5     7                       1.32830
    7 Stretch                  7     8                       1.01778
    8 Stretch                  7     9                       1.47041
    9 Stretch                  9    10                       1.09034
   10 Stretch                  9    11                       1.54570
   11 Stretch                  9    17                       1.54594
   12 Stretch                 11    12                       1.09200
   13 Stretch                 11    13                       1.09156
   14 Stretch                 11    14                       1.53838
   15 Stretch                 14    15                       1.25675
   16 Stretch                 14    16                       1.25108
   17 Stretch                 17    18                       1.23086
   18 Stretch                 17    19                       1.33703
   19 Stretch                 19    20                       1.00890
   20 Stretch                 19    21                       1.47078
   21 Stretch                 21    22                       1.09073
   22 Stretch                 21    23                       1.54559
   23 Stretch                 21    29                       1.54619
   24 Stretch                 23    24                       1.09167
   25 Stretch                 23    25                       1.09119
   26 Stretch                 23    26                       1.53946
   27 Stretch                 26    27                       1.25189
   28 Stretch                 26    28                       1.25492
   29 Stretch                 29    30                       1.23234
   30 Stretch                 29    31                       1.32439
   31 Stretch                 31    32                       1.00288
   32 Stretch                 31    33                       1.01681
   33 Bend                     1     2     3               110.13539
   34 Bend                     1     2     4               110.42269
   35 Bend                     1     2     5               108.96718
   36 Bend                     2     5     6               120.06531
   37 Bend                     2     5     7               115.73479
   38 Bend                     3     2     4               109.85591
   39 Bend                     3     2     5               108.50305
   40 Bend                     4     2     5               108.91505
   41 Bend                     5     7     8               118.17953
   42 Bend                     5     7     9               125.87912
   43 Bend                     6     5     7               124.19592
   44 Bend                     7     9    10               107.95428
   45 Bend                     7     9    11               109.22217
   46 Bend                     7     9    17               114.21642
   47 Bend                     8     7     9               115.07176
   48 Bend                     9    11    12               108.33039
   49 Bend                     9    11    13               108.65764
   50 Bend                     9    11    14               114.87180
   51 Bend                     9    17    18               120.09051
   52 Bend                     9    17    19               117.70582
   53 Bend                    10     9    11               107.81582
   54 Bend                    10     9    17               107.14359
   55 Bend                    11     9    17               110.25921
   56 Bend                    11    14    15               117.81500
   57 Bend                    11    14    16               117.86423
   58 Bend                    12    11    13               107.41724
   59 Bend                    12    11    14               107.64236
   60 Bend                    13    11    14               109.66491
   61 Bend                    15    14    16               124.31634
   62 Bend                    17    19    20               116.84810
   63 Bend                    17    19    21               126.89936
   64 Bend                    18    17    19               122.19710
   65 Bend                    19    21    22               108.63110
   66 Bend                    19    21    23               110.23115
   67 Bend                    19    21    29               109.95678
   68 Bend                    20    19    21               115.84816
   69 Bend                    21    23    24               108.70380
   70 Bend                    21    23    25               108.70291
   71 Bend                    21    23    26               114.58841
   72 Bend                    21    29    30               121.97462
   73 Bend                    21    29    31               118.38853
   74 Bend                    22    21    23               108.07131
   75 Bend                    22    21    29               108.12085
   76 Bend                    23    21    29               111.73648
   77 Bend                    23    26    27               117.29923
   78 Bend                    23    26    28               118.97558
   79 Bend                    24    23    25               107.78664
   80 Bend                    24    23    26               107.70516
   81 Bend                    25    23    26               109.15026
   82 Bend                    27    26    28               123.71544
   83 Bend                    29    31    32               119.03194
   84 Bend                    29    31    33               117.84427
   85 Bend                    30    29    31               119.63685
   86 Bend                    32    31    33               122.42742
   87 Torsion                  1     2     5     6          -5.26279
   88 Torsion                  1     2     5     7         174.04123
   89 Torsion                  2     5     7     8          -8.51151
   90 Torsion                  2     5     7     9        -177.27206
   91 Torsion                  3     2     5     6         114.66194
   92 Torsion                  3     2     5     7         -66.03403
   93 Torsion                  4     2     5     6        -125.78086
   94 Torsion                  4     2     5     7          53.52317
   95 Torsion                  5     7     9    10          48.42807
   96 Torsion                  5     7     9    11         165.40244
   97 Torsion                  5     7     9    17         -70.61677
   98 Torsion                  6     5     7     8         170.76026
   99 Torsion                  6     5     7     9           1.99971
  100 Torsion                  7     9    11    12          79.04872
  101 Torsion                  7     9    11    13        -164.54797
  102 Torsion                  7     9    11    14         -41.31609
  103 Torsion                  7     9    17    18         161.64287
  104 Torsion                  7     9    17    19         -17.44437
  105 Torsion                  8     7     9    10        -120.63785
  106 Torsion                  8     7     9    11          -3.66348
  107 Torsion                  8     7     9    17         120.31731
  108 Torsion                  9    11    14    15          68.09527
  109 Torsion                  9    11    14    16        -112.63654
  110 Torsion                  9    17    19    20           2.62282
  111 Torsion                  9    17    19    21         174.97858
  112 Torsion                 10     9    11    12        -163.88928
  113 Torsion                 10     9    11    13         -47.48598
  114 Torsion                 10     9    11    14          75.74591
  115 Torsion                 10     9    17    18          42.14069
  116 Torsion                 10     9    17    19        -136.94656
  117 Torsion                 11     9    17    18         -74.93432
  118 Torsion                 11     9    17    19         105.97843
  119 Torsion                 12    11     9    17         -47.23215
  120 Torsion                 12    11    14    15         -52.64794
  121 Torsion                 12    11    14    16         126.62025
  122 Torsion                 13    11     9    17          69.17115
  123 Torsion                 13    11    14    15        -169.21260
  124 Torsion                 13    11    14    16          10.05560
  125 Torsion                 14    11     9    17        -167.59696
  126 Torsion                 17    19    21    22         -32.17731
  127 Torsion                 17    19    21    23          86.06046
  128 Torsion                 17    19    21    29        -150.31636
  129 Torsion                 18    17    19    20        -176.44391
  130 Torsion                 18    17    19    21          -4.08815
  131 Torsion                 19    21    23    24         -50.97474
  132 Torsion                 19    21    23    25          66.09653
  133 Torsion                 19    21    23    26        -171.50634
  134 Torsion                 19    21    29    30         -18.22207
  135 Torsion                 19    21    29    31         161.75834
  136 Torsion                 20    19    21    22         140.24463
  137 Torsion                 20    19    21    23        -101.51761
  138 Torsion                 20    19    21    29          22.10557
  139 Torsion                 21    23    26    27        -160.88333
  140 Torsion                 21    23    26    28          18.02353
  141 Torsion                 21    29    31    32         178.20819
  142 Torsion                 21    29    31    33           7.53429
  143 Torsion                 22    21    23    24          67.60632
  144 Torsion                 22    21    23    25        -175.32241
  145 Torsion                 22    21    23    26         -52.92528
  146 Torsion                 22    21    29    30        -136.67598
  147 Torsion                 22    21    29    31          43.30443
  148 Torsion                 23    21    29    30         104.51816
  149 Torsion                 23    21    29    31         -75.50143
  150 Torsion                 24    23    21    29        -173.55840
  151 Torsion                 24    23    26    27          78.03429
  152 Torsion                 24    23    26    28        -103.05885
  153 Torsion                 25    23    21    29         -56.48713
  154 Torsion                 25    23    26    27         -38.72906
  155 Torsion                 25    23    26    28         140.17780
  156 Torsion                 26    23    21    29          65.91000
  157 Torsion                 30    29    31    32          -1.81093
  158 Torsion                 30    29    31    33        -172.48483


            XYZ format geometry
            -------------------
    33
 geometry
 H                     4.00548826     2.55420095    -0.20966471
 C                     3.02820743     2.59274727    -0.68468613
 H                     3.00623912     1.93386794    -1.55027692
 H                     2.79377534     3.61131155    -0.98925369
 C                     1.98537646     2.12442349     0.30019275
 O                     2.32539184     1.69040522     1.39403537
 N                     0.72359019     2.23369207    -0.10024301
 H                     0.53561028     2.73622293    -0.96512004
 C                    -0.46566543     1.89950824     0.69731717
 H                    -0.35612767     2.36705868     1.67621659
 C                    -1.71768867     2.50403598     0.02191950
 H                    -2.00441909     1.85816827    -0.81061492
 H                    -2.53990968     2.49608992     0.73982721
 C                    -1.52984154     3.92596929    -0.53433774
 O                    -0.76618293     4.07334686    -1.52152282
 O                    -2.15791932     4.85712564     0.01671957
 C                    -0.66447472     0.38500237     0.93536512
 O                    -1.39921446    -0.00593322     1.84219359
 N                    -0.00138470    -0.46147219     0.14072592
 H                     0.62101518    -0.05389698    -0.54072535
 C                     0.04027263    -1.92749543     0.25131313
 H                    -0.03327482    -2.19969537     1.30497340
 C                    -1.16217090    -2.55384858    -0.49074098
 H                    -2.07664029    -2.06287387    -0.15247692
 H                    -1.05449213    -2.35851851    -1.55889521
 C                    -1.33392482    -4.06753380    -0.26895137
 O                    -2.03109126    -4.69397342    -1.09887507
 O                    -0.76001611    -4.60785923     0.70752558
 C                     1.38740692    -2.45948642    -0.28990841
 O                     2.10985425    -1.78133101    -1.02260282
 N                     1.76469846    -3.68208056     0.05203555
 H                     2.62355626    -4.04700195    -0.31533029
 H                     1.09929143    -4.26009009     0.55902615

 ==============================================================================
                                internuclear distances
 ------------------------------------------------------------------------------
       center one      |      center two      | atomic units |  angstroms
 ------------------------------------------------------------------------------
    2 C                |   1 H                |     2.05469  |     1.08729
    3 H                |   2 C                |     2.05612  |     1.08805
    4 H                |   2 C                |     2.05728  |     1.08867
    5 C                |   2 C                |     2.85143  |     1.50891
    6 O                |   5 C                |     2.31480  |     1.22494
    7 N                |   5 C                |     2.51013  |     1.32830
    8 H                |   7 N                |     1.92333  |     1.01778
    9 C                |   7 N                |     2.77867  |     1.47041
   10 H                |   9 C                |     2.06045  |     1.09034
   11 C                |   9 C                |     2.92094  |     1.54570
   12 H                |  11 C                |     2.06359  |     1.09200
   13 H                |  11 C                |     2.06275  |     1.09156
   14 C                |  11 C                |     2.90711  |     1.53838
   15 O                |  14 C                |     2.37492  |     1.25675
   16 O                |  14 C                |     2.36420  |     1.25108
   17 C                |   9 C                |     2.92140  |     1.54594
   18 O                |  17 C                |     2.32598  |     1.23086
   19 N                |  17 C                |     2.52663  |     1.33703
   20 H                |  19 N                |     1.90654  |     1.00890
   21 C                |  19 N                |     2.77937  |     1.47078
   22 H                |  21 C                |     2.06119  |     1.09073
   23 C                |  21 C                |     2.92073  |     1.54559
   24 H                |  23 C                |     2.06295  |     1.09167
   25 H                |  23 C                |     2.06206  |     1.09119
   26 C                |  23 C                |     2.90916  |     1.53946
   27 O                |  26 C                |     2.36574  |     1.25189
   28 O                |  26 C                |     2.37146  |     1.25492
   29 C                |  21 C                |     2.92188  |     1.54619
   30 O                |  29 C                |     2.32879  |     1.23234
   31 N                |  29 C                |     2.50274  |     1.32439
   32 H                |  31 N                |     1.89516  |     1.00288
   33 H                |  31 N                |     1.92149  |     1.01681
 ------------------------------------------------------------------------------
                         number of included internuclear distances:         32
 ==============================================================================



 ==============================================================================
                                 internuclear angles
 ------------------------------------------------------------------------------
        center 1       |       center 2       |       center 3       |  degrees
 ------------------------------------------------------------------------------
    1 H                |   2 C                |   3 H                |   110.14
    1 H                |   2 C                |   4 H                |   110.42
    1 H                |   2 C                |   5 C                |   108.97
    3 H                |   2 C                |   4 H                |   109.86
    3 H                |   2 C                |   5 C                |   108.50
    4 H                |   2 C                |   5 C                |   108.92
    2 C                |   5 C                |   6 O                |   120.07
    2 C                |   5 C                |   7 N                |   115.73
    6 O                |   5 C                |   7 N                |   124.20
    5 C                |   7 N                |   8 H                |   118.18
    5 C                |   7 N                |   9 C                |   125.88
    8 H                |   7 N                |   9 C                |   115.07
    7 N                |   9 C                |  10 H                |   107.95
    7 N                |   9 C                |  11 C                |   109.22
    7 N                |   9 C                |  17 C                |   114.22
   10 H                |   9 C                |  11 C                |   107.82
   10 H                |   9 C                |  17 C                |   107.14
   11 C                |   9 C                |  17 C                |   110.26
    9 C                |  11 C                |  12 H                |   108.33
    9 C                |  11 C                |  13 H                |   108.66
    9 C                |  11 C                |  14 C                |   114.87
   12 H                |  11 C                |  13 H                |   107.42
   12 H                |  11 C                |  14 C                |   107.64
   13 H                |  11 C                |  14 C                |   109.66
   11 C                |  14 C                |  15 O                |   117.81
   11 C                |  14 C                |  16 O                |   117.86
   15 O                |  14 C                |  16 O                |   124.32
    9 C                |  17 C                |  18 O                |   120.09
    9 C                |  17 C                |  19 N                |   117.71
   18 O                |  17 C                |  19 N                |   122.20
   17 C                |  19 N                |  20 H                |   116.85
   17 C                |  19 N                |  21 C                |   126.90
   20 H                |  19 N                |  21 C                |   115.85
   19 N                |  21 C                |  22 H                |   108.63
   19 N                |  21 C                |  23 C                |   110.23
   19 N                |  21 C                |  29 C                |   109.96
   22 H                |  21 C                |  23 C                |   108.07
   22 H                |  21 C                |  29 C                |   108.12
   23 C                |  21 C                |  29 C                |   111.74
   21 C                |  23 C                |  24 H                |   108.70
   21 C                |  23 C                |  25 H                |   108.70
   21 C                |  23 C                |  26 C                |   114.59
   24 H                |  23 C                |  25 H                |   107.79
   24 H                |  23 C                |  26 C                |   107.71
   25 H                |  23 C                |  26 C                |   109.15
   23 C                |  26 C                |  27 O                |   117.30
   23 C                |  26 C                |  28 O                |   118.98
   27 O                |  26 C                |  28 O                |   123.72
   21 C                |  29 C                |  30 O                |   121.97
   21 C                |  29 C                |  31 N                |   118.39
   30 O                |  29 C                |  31 N                |   119.64
   29 C                |  31 N                |  32 H                |   119.03
   29 C                |  31 N                |  33 H                |   117.84
   32 H                |  31 N                |  33 H                |   122.43
 ------------------------------------------------------------------------------
                            number of included internuclear angles:         54
 ==============================================================================



  library name resolved from: environment
  library file name is: </opt/rit/el9/20230413/app/linux-rhel9-x86_64_v3/gcc-11.2.1/nwchem-7.2.0-oxtctbuhfuzyfaoziquq6bki22grib3g/share/nwchem/libraries/>
  


 Summary of "ao basis" -> "" (cartesian)
 ------------------------------------------------------------------------------
       Tag                 Description            Shells   Functions and Types
 ---------------- ------------------------------  ------  ---------------------
 *                        aug-cc-pvdz                 on all atoms 


                      Basis "ao basis" -> "ao basis" (cartesian)
                      -----
  H (Hydrogen)
  ------------
            Exponent  Coefficients 
       -------------- ---------------------------------------------------------
  1 S  1.30100000E+01  0.019685
  1 S  1.96200000E+00  0.137977
  1 S  4.44600000E-01  0.478148

  2 S  1.22000000E-01  1.000000

  3 S  2.97400000E-02  1.000000

  4 P  7.27000000E-01  1.000000

  5 P  1.41000000E-01  1.000000

  C (Carbon)
  ----------
            Exponent  Coefficients 
       -------------- ---------------------------------------------------------
  1 S  6.66500000E+03  0.000692
  1 S  1.00000000E+03  0.005329
  1 S  2.28000000E+02  0.027077
  1 S  6.47100000E+01  0.101718
  1 S  2.10600000E+01  0.274740
  1 S  7.49500000E+00  0.448564
  1 S  2.79700000E+00  0.285074
  1 S  5.21500000E-01  0.015204

  2 S  6.66500000E+03 -0.000146
  2 S  1.00000000E+03 -0.001154
  2 S  2.28000000E+02 -0.005725
  2 S  6.47100000E+01 -0.023312
  2 S  2.10600000E+01 -0.063955
  2 S  7.49500000E+00 -0.149981
  2 S  2.79700000E+00 -0.127262
  2 S  5.21500000E-01  0.544529

  3 S  1.59600000E-01  1.000000

  4 S  4.69000000E-02  1.000000

  5 P  9.43900000E+00  0.038109
  5 P  2.00200000E+00  0.209480
  5 P  5.45600000E-01  0.508557

  6 P  1.51700000E-01  1.000000

  7 P  4.04100000E-02  1.000000

  8 D  5.50000000E-01  1.000000

  9 D  1.51000000E-01  1.000000

  O (Oxygen)
  ----------
            Exponent  Coefficients 
       -------------- ---------------------------------------------------------
  1 S  1.17200000E+04  0.000710
  1 S  1.75900000E+03  0.005470
  1 S  4.00800000E+02  0.027837
  1 S  1.13700000E+02  0.104800
  1 S  3.70300000E+01  0.283062
  1 S  1.32700000E+01  0.448719
  1 S  5.02500000E+00  0.270952
  1 S  1.01300000E+00  0.015458

  2 S  1.17200000E+04 -0.000160
  2 S  1.75900000E+03 -0.001263
  2 S  4.00800000E+02 -0.006267
  2 S  1.13700000E+02 -0.025716
  2 S  3.70300000E+01 -0.070924
  2 S  1.32700000E+01 -0.165411
  2 S  5.02500000E+00 -0.116955
  2 S  1.01300000E+00  0.557368

  3 S  3.02300000E-01  1.000000

  4 S  7.89600000E-02  1.000000

  5 P  1.77000000E+01  0.043018
  5 P  3.85400000E+00  0.228913
  5 P  1.04600000E+00  0.508728

  6 P  2.75300000E-01  1.000000

  7 P  6.85600000E-02  1.000000

  8 D  1.18500000E+00  1.000000

  9 D  3.32000000E-01  1.000000

  N (Nitrogen)
  ------------
            Exponent  Coefficients 
       -------------- ---------------------------------------------------------
  1 S  9.04600000E+03  0.000700
  1 S  1.35700000E+03  0.005389
  1 S  3.09300000E+02  0.027406
  1 S  8.77300000E+01  0.103207
  1 S  2.85600000E+01  0.278723
  1 S  1.02100000E+01  0.448540
  1 S  3.83800000E+00  0.278238
  1 S  7.46600000E-01  0.015440

  2 S  9.04600000E+03 -0.000153
  2 S  1.35700000E+03 -0.001208
  2 S  3.09300000E+02 -0.005992
  2 S  8.77300000E+01 -0.024544
  2 S  2.85600000E+01 -0.067459
  2 S  1.02100000E+01 -0.158078
  2 S  3.83800000E+00 -0.121831
  2 S  7.46600000E-01  0.549003

  3 S  2.24800000E-01  1.000000

  4 S  6.12400000E-02  1.000000

  5 P  1.35500000E+01  0.039919
  5 P  2.91700000E+00  0.217169
  5 P  7.97300000E-01  0.510319

  6 P  2.18500000E-01  1.000000

  7 P  5.61100000E-02  1.000000

  8 D  8.17000000E-01  1.000000

  9 D  2.30000000E-01  1.000000



 Summary of "ao basis" -> "ao basis" (cartesian)
 ------------------------------------------------------------------------------
       Tag                 Description            Shells   Functions and Types
 ---------------- ------------------------------  ------  ---------------------
 H                        aug-cc-pvdz                5        9   3s2p
 C                        aug-cc-pvdz                9       25   4s3p2d
 O                        aug-cc-pvdz                9       25   4s3p2d
 N                        aug-cc-pvdz                9       25   4s3p2d


                                 NWChem SCF Module
                                 -----------------



  ao basis        = "ao basis"
  functions       =   617
  atoms           =    33
  closed shells   =    75
  open shells     =     0
  charge          =   0.00
  wavefunction    = RHF 
  input vectors   = atomic
  output vectors  = ./ASP_ASP_1.movecs
  use symmetry    = F
  symmetry adapt  = F


 Summary of "ao basis" -> "ao basis" (cartesian)
 ------------------------------------------------------------------------------
       Tag                 Description            Shells   Functions and Types
 ---------------- ------------------------------  ------  ---------------------
 H                        aug-cc-pvdz                5        9   3s2p
 C                        aug-cc-pvdz                9       25   4s3p2d
 O                        aug-cc-pvdz                9       25   4s3p2d
 N                        aug-cc-pvdz                9       25   4s3p2d



 Forming initial guess at       0.6s


 !! The overlap matrix has   3 vectors deemed linearly dependent with
    eigenvalues:
 2.94D-06 3.09D-06 8.44D-06


      Superposition of Atomic Density Guess
      -------------------------------------

 Sum of atomic energies:       -1069.43740700

      Non-variational initial energy
      ------------------------------

 Total energy =   -1080.526501
 1-e energy   =   -4640.087426
 2-e energy   =    1960.556466
 HOMO         =      -0.316415
 LUMO         =      -0.308347


 Starting SCF solution at     192.6s



 ----------------------------------------------
         Quadratically convergent ROHF

 Convergence threshold     :          1.000E-04
 Maximum no. of iterations :           30
 Final Fock-matrix accuracy:          1.000E-10
 ----------------------------------------------


              iter       energy          gnorm     gmax       time
             ----- ------------------- --------- --------- --------
                 1    -1072.6433669020  3.59D+00  2.69D-01    398.5
  Setting level-shift to   3.10 to force positive preconditioner
                 2    -1073.3493987907  1.09D+00  7.92D-02    605.4
  ga_iter_lsolve: convergence stagnant ... aborting solve

 Disabled NR: increased maxiter to  40

                 3    -1073.4314608173  5.23D-01  5.73D-02   1597.0
                 4    -1073.4591331606  2.82D-01  5.01D-02   2010.3
                 5    -1073.4662304308  2.04D-01  2.24D-02   2423.3
                 6    -1073.4735714553  1.73D-01  1.48D-02   2630.0
                 7    -1073.4776746396  1.07D-01  1.63D-02   2836.5
                 8    -1073.4799042317  7.99D-02  2.01D-02   3043.0
                 9    -1073.4809134724  7.85D-02  1.29D-02   3455.9
                10    -1073.4818110599  8.08D-02  1.26D-02   3662.4
                11    -1073.4822139260  4.80D-02  6.24D-03   4075.4
                12    -1073.4824242157  3.42D-02  7.94D-03   4488.3
                13    -1073.4825834767  3.33D-02  4.49D-03   4901.3
                14    -1073.4827360059  2.69D-02  3.25D-03   5107.7
                15    -1073.4828512856  2.41D-02  4.98D-03   5314.4
                16    -1073.4829287209  2.53D-02  5.31D-03   5727.2
                17    -1073.4830077629  1.91D-02  1.45D-03   6140.2
                18    -1073.4830416459  1.08D-02  1.84D-03   6346.7
                19    -1073.4830528567  8.73D-03  1.68D-03   6759.6
                20    -1073.4830626193  8.02D-03  8.56D-04   7172.6
                21    -1073.4830732559  8.12D-03  1.20D-03   7585.5
                22    -1073.4830844520  8.93D-03  1.39D-03   7998.4
                23    -1073.4830921291  8.71D-03  2.00D-03   8411.2
                24    -1073.4831018820  7.60D-03  6.25D-04   8824.3
                25    -1073.4831077802  4.70D-03  5.51D-04   9030.8
                26    -1073.4831111660  4.23D-03  9.22D-04   9443.6
                27    -1073.4831128179  4.05D-03  6.70D-04   9856.5
                28    -1073.4831150856  3.56D-03  4.32D-04  10063.2
                29    -1073.4831173263  3.48D-03  4.49D-04  10475.9
                30    -1073.4831184781  2.92D-03  4.28D-04  10682.4
                31    -1073.4831190890  2.53D-03  4.72D-04  11095.3
                32    -1073.4831201272  2.43D-03  2.72D-04  11301.8
                33    -1073.4831209628  2.42D-03  4.74D-04  11714.6
                34    -1073.4831214575  2.43D-03  5.00D-04  12127.6
                35    -1073.4831221838  2.62D-03  2.94D-04  12334.2
                36    -1073.4831228586  2.16D-03  1.89D-04  12747.1
                37    -1073.4831232357  1.73D-03  4.62D-04  12953.5
                38    -1073.4831235607  1.64D-03  1.40D-04  13366.4
                39    -1073.4831238361  1.14D-03  1.65D-04  13778.9
                40    -1073.4831239275  1.06D-03  1.80D-04  14191.8

      Calculation failed to converge
      ------------------------------



       Final RHF  results 
       ------------------ 

         Total SCF energy =  -1073.483123927481
      One-electron energy =  -4646.620669973848
      Two-electron energy =   1974.133087257884
 Nuclear repulsion energy =   1599.004458788483

        Time for solution =  14000.1s


             Final eigenvalues
             -----------------

              1      
    1  -20.6661
    2  -20.6343
    3  -20.6184
    4  -20.6092
    5  -20.5780
    6  -20.5713
    7  -20.5647
    8  -15.7079
    9  -15.6544
   10  -15.6165
   11  -11.4425
   12  -11.4379
   13  -11.4186
   14  -11.4034
   15  -11.3904
   16  -11.3736
   17  -11.3704
   18  -11.3401
   19  -11.3189
   20  -11.2626
   21   -1.4818
   22   -1.4716
   23   -1.4662
   24   -1.4271
   25   -1.4237
   26   -1.3630
   27   -1.3624
   28   -1.3286
   29   -1.2958
   30   -1.2500
   31   -1.1394
   32   -1.1162
   33   -1.0306
   34   -1.0055
   35   -0.9602
   36   -0.8790
   37   -0.8605
   38   -0.8496
   39   -0.8047
   40   -0.7972
   41   -0.7876
   42   -0.7568
   43   -0.7444
   44   -0.7317
   45   -0.7185
   46   -0.7119
   47   -0.7048
   48   -0.7002
   49   -0.6933
   50   -0.6851
   51   -0.6782
   52   -0.6556
   53   -0.6512
   54   -0.6454
   55   -0.6350
   56   -0.6329
   57   -0.6196
   58   -0.6099
   59   -0.6041
   60   -0.5865
   61   -0.5822
   62   -0.5742
   63   -0.5617
   64   -0.5466
   65   -0.5076
   66   -0.4924
   67   -0.4903
   68   -0.4843
   69   -0.4782
   70   -0.4685
   71   -0.4594
   72   -0.4577
   73   -0.4372
   74   -0.4280
   75   -0.3639
   76   -0.2806
   77    0.0219
   78    0.0333
   79    0.0376
   80    0.0396
   81    0.0518
   82    0.0544
   83    0.0586
   84    0.0597
   85    0.0614

                       ROHF Final Molecular Orbital Analysis
                       -------------------------------------

 Vector   21  Occ=2.000000D+00  E=-1.481750D+00
              MO Center= -1.6D+00, -4.5D+00, -4.9D-01, r^2= 1.1D+00
   Bfn.  Coefficient  Atom+Function         Bfn.  Coefficient  Atom+Function  
  ----- ------------  ---------------      ----- ------------  ---------------
   477      0.351847  27 O  s               476      0.327098  27 O  s         
   451      0.255694  26 C  s               453     -0.223755  26 C  s         
   502      0.203258  28 O  s               501      0.195809  28 O  s         

 Vector   22  Occ=2.000000D+00  E=-1.471610D+00
              MO Center= -1.5D+00,  4.1D+00, -5.5D-01, r^2= 2.0D+00
   Bfn.  Coefficient  Atom+Function         Bfn.  Coefficient  Atom+Function  
  ----- ------------  ---------------      ----- ------------  ---------------
   266      0.293793  16 O  s               265      0.276803  16 O  s         
   241      0.261095  15 O  s               215      0.253371  14 C  s         
   240      0.245470  15 O  s               217     -0.218972  14 C  s         

 Vector   23  Occ=2.000000D+00  E=-1.466240D+00
              MO Center= -9.7D-01,  2.1D-01,  1.2D+00, r^2= 2.2D+00
   Bfn.  Coefficient  Atom+Function         Bfn.  Coefficient  Atom+Function  
  ----- ------------  ---------------      ----- ------------  ---------------
   316      0.349516  18 O  s               315      0.334831  18 O  s         
   290      0.241018  17 C  s         

 Vector   24  Occ=2.000000D+00  E=-1.427090D+00
              MO Center=  1.9D+00,  1.9D+00,  8.9D-01, r^2= 1.2D+00
   Bfn.  Coefficient  Atom+Function         Bfn.  Coefficient  Atom+Function  
  ----- ------------  ---------------      ----- ------------  ---------------
    80      0.345934   6 O  s                79      0.342061   6 O  s         
    54      0.245715   5 C  s                12      0.181487   2 C  s         

 Vector   25  Occ=2.000000D+00  E=-1.423725D+00
              MO Center=  1.8D+00, -2.1D+00, -6.4D-01, r^2= 1.3D+00
   Bfn.  Coefficient  Atom+Function         Bfn.  Coefficient  Atom+Function  
  ----- ------------  ---------------      ----- ------------  ---------------
   552      0.378459  30 O  s               551      0.346765  30 O  s         
   526      0.244428  29 C  s         

 Vector   26  Occ=2.000000D+00  E=-1.363039D+00
              MO Center= -1.4D+00,  4.3D+00, -7.3D-01, r^2= 1.5D+00
   Bfn.  Coefficient  Atom+Function         Bfn.  Coefficient  Atom+Function  
  ----- ------------  ---------------      ----- ------------  ---------------
   241      0.338727  15 O  s               266     -0.318840  16 O  s         
   240      0.315522  15 O  s               265     -0.296146  16 O  s         
   220     -0.177423  14 C  pz              218      0.162564  14 C  px        

 Vector   27  Occ=2.000000D+00  E=-1.362420D+00
              MO Center= -1.2D+00, -4.5D+00,  4.5D-02, r^2= 1.3D+00
   Bfn.  Coefficient  Atom+Function         Bfn.  Coefficient  Atom+Function  
  ----- ------------  ---------------      ----- ------------  ---------------
   502      0.371012  28 O  s               501      0.346386  28 O  s         
   477     -0.278956  27 O  s               476     -0.251982  27 O  s         
   456      0.210567  26 C  pz        

 Vector   28  Occ=2.000000D+00  E=-1.328564D+00
              MO Center= -1.1D-01, -2.3D-01,  4.3D-01, r^2= 2.5D+00
   Bfn.  Coefficient  Atom+Function         Bfn.  Coefficient  Atom+Function  
  ----- ------------  ---------------      ----- ------------  ---------------
   341      0.351469  19 N  s               340      0.328452  19 N  s         
   316     -0.236018  18 O  s               315     -0.191190  18 O  s         

 Vector   29  Occ=2.000000D+00  E=-1.295819D+00
              MO Center=  7.9D-01,  1.9D+00,  1.9D-01, r^2= 2.6D+00
   Bfn.  Coefficient  Atom+Function         Bfn.  Coefficient  Atom+Function  
  ----- ------------  ---------------      ----- ------------  ---------------
   105      0.381933   7 N  s               104      0.324184   7 N  s         
    80     -0.211327   6 O  s               341     -0.189136  19 N  s         
    79     -0.181716   6 O  s         

 Vector   30  Occ=2.000000D+00  E=-1.249951D+00
              MO Center=  1.7D+00, -3.3D+00, -1.2D-01, r^2= 1.4D+00
   Bfn.  Coefficient  Atom+Function         Bfn.  Coefficient  Atom+Function  
  ----- ------------  ---------------      ----- ------------  ---------------
   577      0.395520  31 N  s               576      0.364722  31 N  s         
   552     -0.219661  30 O  s               530     -0.192919  29 C  py        
   551     -0.184672  30 O  s               609      0.157534  33 H  s         
   600      0.153305  32 H  s         

 Vector   31  Occ=2.000000D+00  E=-1.139363D+00
              MO Center= -3.7D-01, -3.8D-01,  9.2D-02, r^2= 7.0D+00
   Bfn.  Coefficient  Atom+Function         Bfn.  Coefficient  Atom+Function  
  ----- ------------  ---------------      ----- ------------  ---------------
   408      0.201845  23 C  s               374      0.194764  21 C  s         
   139     -0.158880   9 C  s               138     -0.154246   9 C  s         

 Vector   32  Occ=2.000000D+00  E=-1.116211D+00
              MO Center= -6.4D-01,  4.6D-01,  3.0D-02, r^2= 8.1D+00
   Bfn.  Coefficient  Atom+Function         Bfn.  Coefficient  Atom+Function  
  ----- ------------  ---------------      ----- ------------  ---------------
   172      0.213203  11 C  s               408      0.191772  23 C  s         
   138      0.175981   9 C  s               409      0.170376  23 C  s         
   173      0.156191  11 C  s         

 Vector   33  Occ=2.000000D+00  E=-1.030622D+00
              MO Center=  1.6D+00,  2.5D+00, -3.7D-01, r^2= 5.4D+00
   Bfn.  Coefficient  Atom+Function         Bfn.  Coefficient  Atom+Function  
  ----- ------------  ---------------      ----- ------------  ---------------
    11      0.305277   2 C  s               173      0.264098  11 C  s         
   174      0.221466  11 C  s                12      0.180261   2 C  s         
   172      0.172318  11 C  s         

 Vector   34  Occ=2.000000D+00  E=-1.005455D+00
              MO Center= -3.1D-01, -1.1D+00, -8.7D-02, r^2= 7.7D+00
   Bfn.  Coefficient  Atom+Function         Bfn.  Coefficient  Atom+Function  
  ----- ------------  ---------------      ----- ------------  ---------------
   408     -0.215603  23 C  s               145      0.197344   9 C  py        
   380      0.192907  21 C  px              415      0.183450  23 C  py        
   374      0.167438  21 C  s               344     -0.162203  19 N  py        
   409     -0.152321  23 C  s         

 Vector   35  Occ=2.000000D+00  E=-9.601755D-01
              MO Center= -2.0D-01,  9.1D-01,  1.2D-01, r^2= 9.0D+00
   Bfn.  Coefficient  Atom+Function         Bfn.  Coefficient  Atom+Function  
  ----- ------------  ---------------      ----- ------------  ---------------
   138      0.201589   9 C  s               173     -0.193426  11 C  s         
   375      0.169967  21 C  s               172     -0.158364  11 C  s         
   179     -0.155524  11 C  py              380      0.154231  21 C  px        

 Vector   36  Occ=2.000000D+00  E=-8.789701D-01
              MO Center=  2.5D-01, -2.3D-01,  2.4D-01, r^2= 5.6D+00
   Bfn.  Coefficient  Atom+Function         Bfn.  Coefficient  Atom+Function  
  ----- ------------  ---------------      ----- ------------  ---------------
   291      0.301282  17 C  s               345      0.228094  19 N  pz        
   364     -0.228783  20 H  s               380      0.229125  21 C  px        
   341     -0.211928  19 N  s               375      0.210976  21 C  s         
   343     -0.194490  19 N  px              290      0.188021  17 C  s         
   316     -0.169338  18 O  s               107      0.151273   7 N  px        

 Vector   37  Occ=2.000000D+00  E=-8.605216D-01
              MO Center=  5.0D-01,  4.1D-01,  6.8D-02, r^2= 6.4D+00
   Bfn.  Coefficient  Atom+Function         Bfn.  Coefficient  Atom+Function  
  ----- ------------  ---------------      ----- ------------  ---------------
   381      0.235512  21 C  py              341     -0.219718  19 N  s         
   107     -0.213627   7 N  px              364     -0.204761  20 H  s         
   106     -0.188644   7 N  s               345      0.170913  19 N  pz        
   128      0.168897   8 H  s               343     -0.164908  19 N  px        
   105      0.163531   7 N  s                60      0.160925   5 C  px        

 Vector   38  Occ=2.000000D+00  E=-8.496231D-01
              MO Center=  7.9D-01, -7.1D-01,  1.2D-02, r^2= 9.5D+00
   Bfn.  Coefficient  Atom+Function         Bfn.  Coefficient  Atom+Function  
  ----- ------------  ---------------      ----- ------------  ---------------
   375      0.225870  21 C  s               139     -0.204447   9 C  s         
   580      0.194102  31 N  py              526      0.176613  29 C  s         
   128      0.171436   8 H  s               381     -0.169704  21 C  py        
   107     -0.163847   7 N  px              399     -0.156714  22 H  s         
   109     -0.153537   7 N  pz              600     -0.153192  32 H  s         

 Vector   39  Occ=2.000000D+00  E=-8.047305D-01
              MO Center= -9.2D-01,  1.1D+00, -2.2D-01, r^2= 1.4D+01
   Bfn.  Coefficient  Atom+Function         Bfn.  Coefficient  Atom+Function  
  ----- ------------  ---------------      ----- ------------  ---------------
   216      0.225400  14 C  s               145      0.203605   9 C  py        
   291      0.197766  17 C  s               144      0.193728   9 C  px        
   215      0.191311  14 C  s               266     -0.175948  16 O  s         
   109      0.153354   7 N  pz              241     -0.152341  15 O  s         

 Vector   40  Occ=2.000000D+00  E=-7.972022D-01
              MO Center= -1.2D+00, -1.3D+00, -4.4D-01, r^2= 1.7D+01
   Bfn.  Coefficient  Atom+Function         Bfn.  Coefficient  Atom+Function  
  ----- ------------  ---------------      ----- ------------  ---------------
   477     -0.230571  27 O  s               451      0.216898  26 C  s         
   452      0.189488  26 C  s               481      0.183655  27 O  pz        
   502     -0.184198  28 O  s               216     -0.174807  14 C  s         
   215     -0.161884  14 C  s         

 Vector   41  Occ=2.000000D+00  E=-7.876000D-01
              MO Center=  7.1D-01, -2.4D+00, -4.6D-02, r^2= 7.3D+00
   Bfn.  Coefficient  Atom+Function         Bfn.  Coefficient  Atom+Function  
  ----- ------------  ---------------      ----- ------------  ---------------
   609     -0.256016  33 H  s               580      0.247367  31 N  py        
   527      0.204858  29 C  s               528     -0.196435  29 C  s         
   529      0.158577  29 C  px              581     -0.157484  31 N  pz        

 Vector   42  Occ=2.000000D+00  E=-7.568370D-01
              MO Center= -2.1D-01,  4.6D-01,  3.5D-01, r^2= 1.2D+01
   Bfn.  Coefficient  Atom+Function         Bfn.  Coefficient  Atom+Function  
  ----- ------------  ---------------      ----- ------------  ---------------
   145      0.247720   9 C  py              291      0.197049  17 C  s         
   109      0.190587   7 N  pz              316      0.171477  18 O  s         
   139     -0.168975   9 C  s               319     -0.166586  18 O  py        
   528      0.161502  29 C  s               579     -0.160633  31 N  px        
   146     -0.156159   9 C  pz              600     -0.151043  32 H  s         

 Vector   43  Occ=2.000000D+00  E=-7.444461D-01
              MO Center= -2.2D-01, -9.2D-01,  2.3D-01, r^2= 9.8D+00
   Bfn.  Coefficient  Atom+Function         Bfn.  Coefficient  Atom+Function  
  ----- ------------  ---------------      ----- ------------  ---------------
   398      0.164923  22 H  s               579      0.160421  31 N  px        
   413      0.152835  23 C  pz        

 Vector   44  Occ=2.000000D+00  E=-7.317481D-01
              MO Center= -5.4D-01, -4.1D-01, -1.3D-01, r^2= 1.2D+01
   Bfn.  Coefficient  Atom+Function         Bfn.  Coefficient  Atom+Function  
  ----- ------------  ---------------      ----- ------------  ---------------
   455      0.176833  26 C  py              139      0.166963   9 C  s         
   143      0.155071   9 C  pz              479     -0.151835  27 O  px        

 Vector   45  Occ=2.000000D+00  E=-7.184655D-01
              MO Center=  2.4D-01,  4.7D-01, -3.4D-02, r^2= 1.4D+01
   Bfn.  Coefficient  Atom+Function         Bfn.  Coefficient  Atom+Function  
  ----- ------------  ---------------      ----- ------------  ---------------
   409     -0.174716  23 C  s               219      0.163877  14 C  py        
   579     -0.160448  31 N  px              600     -0.160287  32 H  s         

 Vector   46  Occ=2.000000D+00  E=-7.119003D-01
              MO Center=  1.1D+00,  7.8D-01,  2.2D-01, r^2= 1.2D+01
   Bfn.  Coefficient  Atom+Function         Bfn.  Coefficient  Atom+Function  
  ----- ------------  ---------------      ----- ------------  ---------------
    84      0.249743   6 O  pz               80      0.215232   6 O  s         
    57     -0.191531   5 C  px        

 Vector   47  Occ=2.000000D+00  E=-7.048437D-01
              MO Center= -9.7D-01,  5.3D-01,  7.3D-02, r^2= 1.4D+01
   Bfn.  Coefficient  Atom+Function         Bfn.  Coefficient  Atom+Function  
  ----- ------------  ---------------      ----- ------------  ---------------
   219      0.182258  14 C  py              411      0.165259  23 C  px        
   244      0.157737  15 O  py        

 Vector   48  Occ=2.000000D+00  E=-7.001609D-01
              MO Center= -1.0D+00,  1.2D-01, -3.1D-01, r^2= 1.4D+01
   Bfn.  Coefficient  Atom+Function         Bfn.  Coefficient  Atom+Function  
  ----- ------------  ---------------      ----- ------------  ---------------
   455      0.205686  26 C  py              409      0.185188  23 C  s         
   176     -0.160689  11 C  py              481     -0.157683  27 O  pz        
   220     -0.156413  14 C  pz              270     -0.155260  16 O  pz        

 Vector   49  Occ=2.000000D+00  E=-6.933187D-01
              MO Center= -2.5D-01, -1.2D+00, -1.3D-01, r^2= 1.4D+01
   Bfn.  Coefficient  Atom+Function         Bfn.  Coefficient  Atom+Function  
  ----- ------------  ---------------      ----- ------------  ---------------
   530      0.177747  29 C  py              502      0.164512  28 O  s         
   506      0.165093  28 O  pz              454     -0.161261  26 C  px        
   411     -0.155998  23 C  px        

 Vector   50  Occ=2.000000D+00  E=-6.850673D-01
              MO Center= -3.8D-01,  1.7D+00,  2.6D-01, r^2= 1.2D+01
   Bfn.  Coefficient  Atom+Function         Bfn.  Coefficient  Atom+Function  
  ----- ------------  ---------------      ----- ------------  ---------------
   320      0.187146  18 O  pz              269      0.181729  16 O  py        
   245      0.169666  15 O  pz               84      0.159221   6 O  pz        
   220     -0.153489  14 C  pz              241     -0.151813  15 O  s         

 Vector   51  Occ=2.000000D+00  E=-6.781989D-01
              MO Center= -4.8D-01, -2.7D+00, -1.8D-01, r^2= 7.7D+00
   Bfn.  Coefficient  Atom+Function         Bfn.  Coefficient  Atom+Function  
  ----- ------------  ---------------      ----- ------------  ---------------
   528      0.244436  29 C  s               456      0.223227  26 C  pz        
   479     -0.211243  27 O  px              409     -0.190987  23 C  s         
   504     -0.184283  28 O  px              554     -0.153902  30 O  px        

 Vector   52  Occ=2.000000D+00  E=-6.555941D-01
              MO Center= -2.9D-01, -1.1D+00,  3.7D-01, r^2= 1.1D+01
   Bfn.  Coefficient  Atom+Function         Bfn.  Coefficient  Atom+Function  
  ----- ------------  ---------------      ----- ------------  ---------------
   375      0.306134  21 C  s               320     -0.205762  18 O  pz        
   506      0.205310  28 O  pz              409     -0.199000  23 C  s         
   502      0.167276  28 O  s               293     -0.164872  17 C  px        
   456     -0.164247  26 C  pz              381     -0.159556  21 C  py        
   345     -0.158725  19 N  pz        

 Vector   53  Occ=2.000000D+00  E=-6.512065D-01
              MO Center=  1.2D-01,  4.6D-01,  7.8D-03, r^2= 1.1D+01
   Bfn.  Coefficient  Atom+Function         Bfn.  Coefficient  Atom+Function  
  ----- ------------  ---------------      ----- ------------  ---------------
   528      0.233653  29 C  s               174      0.169653  11 C  s         
   409     -0.168398  23 C  s               318     -0.150992  18 O  px        

 Vector   54  Occ=2.000000D+00  E=-6.453615D-01
              MO Center=  7.1D-01,  1.5D+00, -6.1D-02, r^2= 9.7D+00
   Bfn.  Coefficient  Atom+Function         Bfn.  Coefficient  Atom+Function  
  ----- ------------  ---------------      ----- ------------  ---------------
   139      0.234371   9 C  s               106      0.221798   7 N  s         
    15     -0.194411   2 C  py              163     -0.164550  10 H  s         
    35      0.161441   3 H  s                58     -0.155422   5 C  py        
   375     -0.152415  21 C  s                83     -0.150407   6 O  py        

 Vector   55  Occ=2.000000D+00  E=-6.349844D-01
              MO Center= -2.2D-01, -3.3D-01, -1.7D-01, r^2= 1.5D+01
   Bfn.  Coefficient  Atom+Function         Bfn.  Coefficient  Atom+Function  
  ----- ------------  ---------------      ----- ------------  ---------------
   409      0.213348  23 C  s               292      0.169932  17 C  s         
   139     -0.166799   9 C  s               506     -0.167033  28 O  pz        

 Vector   56  Occ=2.000000D+00  E=-6.329256D-01
              MO Center= -2.1D-01, -2.0D+00, -3.5D-01, r^2= 9.6D+00
   Bfn.  Coefficient  Atom+Function         Bfn.  Coefficient  Atom+Function  
  ----- ------------  ---------------      ----- ------------  ---------------
   479      0.226547  27 O  px              556      0.173525  30 O  pz        
   552     -0.168470  30 O  s               528      0.166800  29 C  s         
   482      0.160892  27 O  px              555     -0.154747  30 O  py        

 Vector   57  Occ=2.000000D+00  E=-6.195515D-01
              MO Center=  6.2D-01,  1.8D+00,  2.7D-01, r^2= 9.0D+00
   Bfn.  Coefficient  Atom+Function         Bfn.  Coefficient  Atom+Function  
  ----- ------------  ---------------      ----- ------------  ---------------
    59      0.239964   5 C  pz               84     -0.200930   6 O  pz        
   173      0.196624  11 C  s                82     -0.181784   6 O  px        
   245      0.166681  15 O  pz              205      0.153351  13 H  s         

 Vector   58  Occ=2.000000D+00  E=-6.098651D-01
              MO Center= -1.9D-01,  4.7D-01,  1.4D-01, r^2= 1.1D+01
   Bfn.  Coefficient  Atom+Function         Bfn.  Coefficient  Atom+Function  
  ----- ------------  ---------------      ----- ------------  ---------------
   318      0.215740  18 O  px              375     -0.211799  21 C  s         
   531     -0.171311  29 C  pz              321      0.159969  18 O  px        

 Vector   59  Occ=2.000000D+00  E=-6.040952D-01
              MO Center=  8.8D-01,  2.5D+00,  4.3D-02, r^2= 7.5D+00
   Bfn.  Coefficient  Atom+Function         Bfn.  Coefficient  Atom+Function  
  ----- ------------  ---------------      ----- ------------  ---------------
    16      0.228736   2 C  pz               82      0.204253   6 O  px        
     2      0.197160   1 H  s               173      0.188166  11 C  s         
    35     -0.183795   3 H  s               270      0.183007  16 O  pz        
   206      0.173363  13 H  s                84      0.160380   6 O  pz        
    59     -0.155063   5 C  pz              205      0.152237  13 H  s         

 Vector   60  Occ=2.000000D+00  E=-5.864698D-01
              MO Center= -5.3D-03, -2.7D+00, -5.0D-01, r^2= 5.0D+00
   Bfn.  Coefficient  Atom+Function         Bfn.  Coefficient  Atom+Function  
  ----- ------------  ---------------      ----- ------------  ---------------
   529      0.230798  29 C  px              556      0.227427  30 O  pz        
   411      0.217557  23 C  px              432     -0.217534  24 H  s         
   581      0.175469  31 N  pz              441      0.169337  25 H  s         
   442      0.167008  25 H  s               479     -0.167299  27 O  px        
   413     -0.156725  23 C  pz        

 Vector   61  Occ=2.000000D+00  E=-5.821953D-01
              MO Center=  1.5D+00,  2.5D+00, -3.5D-01, r^2= 7.5D+00
   Bfn.  Coefficient  Atom+Function         Bfn.  Coefficient  Atom+Function  
  ----- ------------  ---------------      ----- ------------  ---------------
    14      0.266858   2 C  px                1      0.265327   1 H  s         
   174      0.243445  11 C  s               206     -0.244000  13 H  s         
    56     -0.233735   5 C  s                44     -0.229812   4 H  s         
     2      0.219477   1 H  s               217     -0.195680  14 C  s         
    15     -0.178427   2 C  py              177     -0.171272  11 C  pz        

 Vector   62  Occ=2.000000D+00  E=-5.742280D-01
              MO Center=  5.2D-01,  4.1D-01, -2.2D-01, r^2= 1.2D+01
   Bfn.  Coefficient  Atom+Function         Bfn.  Coefficient  Atom+Function  
  ----- ------------  ---------------      ----- ------------  ---------------
     1      0.178970   1 H  s               399      0.179740  22 H  s         
   379      0.170365  21 C  pz               14      0.169293   2 C  px        
   141     -0.160370   9 C  px              175      0.154306  11 C  px        

 Vector   63  Occ=2.000000D+00  E=-5.617039D-01
              MO Center=  1.8D-01,  3.3D-01,  9.7D-02, r^2= 1.1D+01
   Bfn.  Coefficient  Atom+Function         Bfn.  Coefficient  Atom+Function  
  ----- ------------  ---------------      ----- ------------  ---------------
   173      0.193880  11 C  s               379      0.185416  21 C  pz        
   399      0.164916  22 H  s               175     -0.162536  11 C  px        
   398      0.157496  22 H  s               318     -0.153184  18 O  px        
   141      0.151526   9 C  px        

 Vector   64  Occ=2.000000D+00  E=-5.465815D-01
              MO Center=  9.0D-01,  2.0D+00,  2.9D-01, r^2= 6.5D+00
   Bfn.  Coefficient  Atom+Function         Bfn.  Coefficient  Atom+Function  
  ----- ------------  ---------------      ----- ------------  ---------------
   139      0.285304   9 C  s               106     -0.225434   7 N  s         
    15      0.205689   2 C  py               83     -0.202023   6 O  py        
   143      0.190813   9 C  pz               35     -0.186267   3 H  s         
   162      0.184558  10 H  s               291     -0.174171  17 C  s         
    58     -0.169155   5 C  py              319     -0.166827  18 O  py        

 Vector   65  Occ=2.000000D+00  E=-5.076271D-01
              MO Center= -6.5D-01,  1.4D+00,  8.1D-01, r^2= 7.7D+00
   Bfn.  Coefficient  Atom+Function         Bfn.  Coefficient  Atom+Function  
  ----- ------------  ---------------      ----- ------------  ---------------
   319      0.406824  18 O  py              322      0.324449  18 O  py        
   139     -0.242379   9 C  s                83     -0.176632   6 O  py        
   244      0.168552  15 O  py              375      0.169012  21 C  s         
   145      0.159613   9 C  py              270     -0.159943  16 O  pz        
   174     -0.153177  11 C  s         

 Vector   66  Occ=2.000000D+00  E=-4.924057D-01
              MO Center= -8.9D-01, -3.1D+00, -3.7D-02, r^2= 1.1D+01
   Bfn.  Coefficient  Atom+Function         Bfn.  Coefficient  Atom+Function  
  ----- ------------  ---------------      ----- ------------  ---------------
   504      0.311511  28 O  px              479     -0.264841  27 O  px        
   507      0.244378  28 O  px              506     -0.237487  28 O  pz        
   410     -0.225235  23 C  s               482     -0.201523  27 O  px        
   481      0.183284  27 O  pz              509     -0.182445  28 O  pz        
   528      0.160986  29 C  s         

 Vector   67  Occ=2.000000D+00  E=-4.902584D-01
              MO Center= -1.2D+00,  3.0D+00, -6.8D-01, r^2= 1.1D+01
   Bfn.  Coefficient  Atom+Function         Bfn.  Coefficient  Atom+Function  
  ----- ------------  ---------------      ----- ------------  ---------------
   244      0.403297  15 O  py              247      0.336054  15 O  py        
   270      0.299347  16 O  pz              273      0.227107  16 O  pz        
   197     -0.224908  12 H  s               243     -0.205622  15 O  px        
   173      0.194540  11 C  s               246     -0.164940  15 O  px        

 Vector   68  Occ=2.000000D+00  E=-4.843341D-01
              MO Center= -1.1D+00,  2.8D+00, -1.7D-01, r^2= 7.7D+00
   Bfn.  Coefficient  Atom+Function         Bfn.  Coefficient  Atom+Function  
  ----- ------------  ---------------      ----- ------------  ---------------
   244      0.309565  15 O  py              106      0.240163   7 N  s         
   247      0.231665  15 O  py              222     -0.211244  14 C  py        
   319     -0.211156  18 O  py              243      0.190240  15 O  px        
   270     -0.187772  16 O  pz              176      0.182860  11 C  py        
   216      0.182911  14 C  s               322     -0.170260  18 O  py        

 Vector   69  Occ=2.000000D+00  E=-4.782354D-01
              MO Center= -8.1D-01, -3.9D+00,  3.6D-01, r^2= 4.2D+00
   Bfn.  Coefficient  Atom+Function         Bfn.  Coefficient  Atom+Function  
  ----- ------------  ---------------      ----- ------------  ---------------
   505      0.470828  28 O  py              508      0.373399  28 O  py        
   410      0.308248  23 C  s               504      0.255351  28 O  px        
   507      0.215484  28 O  px              442     -0.210281  25 H  s         
   481      0.185951  27 O  pz              528     -0.179740  29 C  s         
   409      0.152986  23 C  s         

 Vector   70  Occ=2.000000D+00  E=-4.684848D-01
              MO Center=  1.0D+00, -2.0D+00, -4.6D-01, r^2= 6.1D+00
   Bfn.  Coefficient  Atom+Function         Bfn.  Coefficient  Atom+Function  
  ----- ------------  ---------------      ----- ------------  ---------------
   554     -0.334311  30 O  px              555      0.335038  30 O  py        
   375      0.315760  21 C  s               558      0.271601  30 O  py        
   557     -0.262316  30 O  px              399     -0.214270  22 H  s         
   545      0.191979  29 C  dxy             409     -0.190228  23 C  s         
   527     -0.183686  29 C  s               173     -0.177625  11 C  s         

 Vector   71  Occ=2.000000D+00  E=-4.593883D-01
              MO Center=  2.0D+00,  1.7D+00,  7.9D-01, r^2= 3.8D+00
   Bfn.  Coefficient  Atom+Function         Bfn.  Coefficient  Atom+Function  
  ----- ------------  ---------------      ----- ------------  ---------------
    82      0.480162   6 O  px               85      0.384198   6 O  px        
    13      0.221055   2 C  s               105      0.206127   7 N  s         
    16     -0.189261   2 C  pz              292     -0.173169  17 C  s         
   173     -0.169459  11 C  s                19     -0.166014   2 C  pz        
    63     -0.159136   5 C  px               84     -0.150475   6 O  pz        

 Vector   72  Occ=2.000000D+00  E=-4.577223D-01
              MO Center=  4.4D-01, -5.6D-01,  1.8D-01, r^2= 8.6D+00
   Bfn.  Coefficient  Atom+Function         Bfn.  Coefficient  Atom+Function  
  ----- ------------  ---------------      ----- ------------  ---------------
   173      0.236484  11 C  s               343      0.214648  19 N  px        
   350     -0.204081  19 N  py              346      0.198200  19 N  px        
   555      0.197372  30 O  py              345      0.188246  19 N  pz        
   108      0.181203   7 N  py              318     -0.174707  18 O  px        
   348      0.171817  19 N  pz              111      0.159032   7 N  py        

 Vector   73  Occ=2.000000D+00  E=-4.372268D-01
              MO Center=  1.7D+00, -2.5D+00, -2.6D-01, r^2= 4.5D+00
   Bfn.  Coefficient  Atom+Function         Bfn.  Coefficient  Atom+Function  
  ----- ------------  ---------------      ----- ------------  ---------------
   581      0.353156  31 N  pz              584      0.304688  31 N  pz        
   556     -0.295104  30 O  pz              410     -0.238144  23 C  s         
   559     -0.233042  30 O  pz              350     -0.213697  19 N  py        
   579      0.195521  31 N  px              582      0.176086  31 N  px        
   554     -0.172903  30 O  px              580      0.151204  31 N  py        

 Vector   74  Occ=2.000000D+00  E=-4.279501D-01
              MO Center=  9.3D-02,  1.1D+00,  3.7D-01, r^2= 1.0D+01
   Bfn.  Coefficient  Atom+Function         Bfn.  Coefficient  Atom+Function  
  ----- ------------  ---------------      ----- ------------  ---------------
   108      0.279106   7 N  py              111      0.264205   7 N  py        
    83     -0.250194   6 O  py               86     -0.194536   6 O  py        
   319     -0.161466  18 O  py              345     -0.159863  19 N  pz        

 Vector   75  Occ=2.000000D+00  E=-3.639287D-01
              MO Center= -1.5D+00,  2.8D-01, -5.9D-01, r^2= 2.0D+01
   Bfn.  Coefficient  Atom+Function         Bfn.  Coefficient  Atom+Function  
  ----- ------------  ---------------      ----- ------------  ---------------
   480      0.325544  27 O  py              483      0.259038  27 O  py        
   268      0.240510  16 O  px              245     -0.209031  15 O  pz        
   269      0.208836  16 O  py              271      0.199843  16 O  px        
   412      0.160658  23 C  py              248     -0.157318  15 O  pz        
   272      0.154870  16 O  py              243     -0.152455  15 O  px        

 Vector   76  Occ=0.000000D+00  E=-2.806369D-01
              MO Center= -1.2D+00, -4.6D-02, -3.1D-01, r^2= 1.7D+01
   Bfn.  Coefficient  Atom+Function         Bfn.  Coefficient  Atom+Function  
  ----- ------------  ---------------      ----- ------------  ---------------
   480      0.300294  27 O  py              173      0.284220  11 C  s         
   483      0.238511  27 O  py              268     -0.193942  16 O  px        
   269     -0.186776  16 O  py              245      0.170470  15 O  pz        
   412      0.171017  23 C  py              222      0.168569  14 C  py        
   271     -0.166990  16 O  px              297     -0.156901  17 C  py        

 Vector   77  Occ=0.000000D+00  E= 2.186314D-02
              MO Center= -1.7D+00, -2.5D-01, -2.3D+00, r^2= 1.9D+01
   Bfn.  Coefficient  Atom+Function         Bfn.  Coefficient  Atom+Function  
  ----- ------------  ---------------      ----- ------------  ---------------
   528      5.024808  29 C  s               453      2.875918  26 C  s         
   410     -2.779368  23 C  s               198     -2.685910  12 H  s         
   443     -2.390874  25 H  s               578     -2.360333  31 N  s         
   217      2.235413  14 C  s               383     -2.038057  21 C  px        
   366      1.974135  20 H  s                56      1.719443   5 C  s         

 Vector   78  Occ=0.000000D+00  E= 3.327970D-02
              MO Center=  2.4D+00, -2.0D+00, -6.3D-01, r^2= 3.4D+01
   Bfn.  Coefficient  Atom+Function         Bfn.  Coefficient  Atom+Function  
  ----- ------------  ---------------      ----- ------------  ---------------
   528      3.547804  29 C  s                63      2.733585   5 C  px        
   578     -2.696775  31 N  s               147      2.461040   9 C  px        
   602     -2.366308  32 H  s               536     -1.506857  29 C  py        
   434      1.490941  24 H  s                 3     -1.363283   1 H  s         
   342      1.253537  19 N  s                37     -1.245239   3 H  s         

 Vector   79  Occ=0.000000D+00  E= 3.759811D-02
              MO Center=  2.6D+00,  6.0D-02, -8.0D-01, r^2= 3.9D+01
   Bfn.  Coefficient  Atom+Function         Bfn.  Coefficient  Atom+Function  
  ----- ------------  ---------------      ----- ------------  ---------------
   578      3.405074  31 N  s               384      3.094155  21 C  py        
   300      2.968627  17 C  py               63      2.862157   5 C  px        
   147      2.806696   9 C  px              410      2.376983  23 C  s         
   453     -2.280304  26 C  s                12      2.113753   2 C  s         
   528     -1.949759  29 C  s               536      1.901760  29 C  py        

 Vector   80  Occ=0.000000D+00  E= 3.956918D-02
              MO Center= -9.3D-01,  1.3D+00,  8.2D-01, r^2= 3.2D+01
   Bfn.  Coefficient  Atom+Function         Bfn.  Coefficient  Atom+Function  
  ----- ------------  ---------------      ----- ------------  ---------------
   443      2.838104  25 H  s               217      2.705659  14 C  s         
   434     -2.500216  24 H  s               164     -2.413779  10 H  s         
   207     -2.348120  13 H  s               130      2.324647   8 H  s         
   149      2.060546   9 C  pz              300     -1.693901  17 C  py        
   384     -1.670809  21 C  py               13      1.618035   2 C  s         

 Vector   81  Occ=0.000000D+00  E= 5.181734D-02
              MO Center= -5.0D-01,  1.4D+00,  8.1D-01, r^2= 3.7D+01
   Bfn.  Coefficient  Atom+Function         Bfn.  Coefficient  Atom+Function  
  ----- ------------  ---------------      ----- ------------  ---------------
    56      4.457398   5 C  s               434      4.382985  24 H  s         
   217      4.053944  14 C  s               174     -3.937276  11 C  s         
    63     -3.657584   5 C  px              164     -3.122838  10 H  s         
   106     -2.802881   7 N  s                 3      2.543058   1 H  s         
   147     -2.496997   9 C  px              300      2.364734  17 C  py        

 Vector   82  Occ=0.000000D+00  E= 5.443357D-02
              MO Center= -9.2D-01, -5.0D-01,  2.1D-01, r^2= 3.8D+01
   Bfn.  Coefficient  Atom+Function         Bfn.  Coefficient  Atom+Function  
  ----- ------------  ---------------      ----- ------------  ---------------
   453      4.976002  26 C  s               164     -4.305408  10 H  s         
   149      3.744853   9 C  pz              217     -3.598247  14 C  s         
   410     -3.298584  23 C  s               528      3.272512  29 C  s         
   300     -3.172269  17 C  py              400     -3.103174  22 H  s         
   443     -3.081662  25 H  s               207      2.539300  13 H  s         

 Vector   83  Occ=0.000000D+00  E= 5.860825D-02
              MO Center=  1.7D+00,  8.5D-01, -9.6D-01, r^2= 3.4D+01
   Bfn.  Coefficient  Atom+Function         Bfn.  Coefficient  Atom+Function  
  ----- ------------  ---------------      ----- ------------  ---------------
    37      4.669028   3 H  s                 3     -3.917925   1 H  s         
    13     -3.900351   2 C  s               300      3.781264  17 C  py        
   384      3.680848  21 C  py              130      2.945462   8 H  s         
   410      2.834404  23 C  s               198     -2.560896  12 H  s         
   148      2.501441   9 C  py              400      2.424183  22 H  s         

 Vector   84  Occ=0.000000D+00  E= 5.965697D-02
              MO Center=  3.0D-01,  5.6D-01, -7.3D-02, r^2= 4.2D+01
   Bfn.  Coefficient  Atom+Function         Bfn.  Coefficient  Atom+Function  
  ----- ------------  ---------------      ----- ------------  ---------------
   198      4.302606  12 H  s               207     -4.292172  13 H  s         
   528      3.946196  29 C  s                46      2.912551   4 H  s         
   611      2.494696  33 H  s                37     -2.436403   3 H  s         
   453     -2.372135  26 C  s               183      2.232576  11 C  pz        
   383     -2.117463  21 C  px              217     -1.936616  14 C  s         

 Vector   85  Occ=0.000000D+00  E= 6.137657D-02
              MO Center=  1.2D+00,  1.0D+00, -4.4D-01, r^2= 4.0D+01
   Bfn.  Coefficient  Atom+Function         Bfn.  Coefficient  Atom+Function  
  ----- ------------  ---------------      ----- ------------  ---------------
   198      3.792461  12 H  s                 3      3.696543   1 H  s         
    46     -3.709112   4 H  s               174     -3.615068  11 C  s         
   400      3.396965  22 H  s               453      2.877116  26 C  s         
   217      2.654705  14 C  s               113     -2.521735   7 N  px        
    13      2.452330   2 C  s               434     -2.432627  24 H  s         

 Vector   86  Occ=0.000000D+00  E= 7.209718D-02
              MO Center= -5.7D-01, -9.2D-01,  3.3D-01, r^2= 4.2D+01
   Bfn.  Coefficient  Atom+Function         Bfn.  Coefficient  Atom+Function  
  ----- ------------  ---------------      ----- ------------  ---------------
   453      5.503176  26 C  s               207     -4.822332  13 H  s         
   434      4.803853  24 H  s               443     -4.289184  25 H  s         
   164      3.920116  10 H  s               385      2.946360  21 C  pz        
   149     -2.876663   9 C  pz              419     -2.715002  23 C  pz        
   611     -2.651764  33 H  s               410     -2.596765  23 C  s         

 Vector   87  Occ=0.000000D+00  E= 7.909030D-02
              MO Center=  1.0D+00, -2.0D+00,  6.1D-01, r^2= 4.0D+01
   Bfn.  Coefficient  Atom+Function         Bfn.  Coefficient  Atom+Function  
  ----- ------------  ---------------      ----- ------------  ---------------
   611     -5.083803  33 H  s               400      5.010524  22 H  s         
   342      4.643614  19 N  s               453      4.218790  26 C  s         
   164     -3.927107  10 H  s                46      3.511261   4 H  s         
    56     -3.199988   5 C  s               174      3.056738  11 C  s         
   366      2.944959  20 H  s               292     -2.808613  17 C  s         

 Vector   88  Occ=0.000000D+00  E= 8.221556D-02
              MO Center=  3.7D-02,  8.0D-01, -1.4D+00, r^2= 3.0D+01
   Bfn.  Coefficient  Atom+Function         Bfn.  Coefficient  Atom+Function  
  ----- ------------  ---------------      ----- ------------  ---------------
   366      9.639762  20 H  s               292     -7.653142  17 C  s         
    56     -7.492368   5 C  s                13      5.837079   2 C  s         
   149      5.497722   9 C  pz              106      5.449955   7 N  s         
   300     -4.960311  17 C  py              198     -4.882651  12 H  s         
   410     -4.428526  23 C  s               217      4.360086  14 C  s         

 Vector   89  Occ=0.000000D+00  E= 8.613093D-02
              MO Center= -5.5D-01,  1.2D+00, -8.9D-01, r^2= 4.3D+01
   Bfn.  Coefficient  Atom+Function         Bfn.  Coefficient  Atom+Function  
[...]
   217     24.025361  14 C  s               528     20.588294  29 C  s         
    56    -19.608639   5 C  s               292    -19.306989  17 C  s         
   106     16.523982   7 N  s                13     13.865704   2 C  s         
   148    -10.723364   9 C  py              418    -10.584720  23 C  py        
   453    -10.547575  26 C  s               578    -10.092505  31 N  s         

 Vector  178  Occ=0.000000D+00  E= 4.130799D-01
              MO Center=  5.5D-01,  6.8D-01,  4.9D-01, r^2= 2.2D+01
   Bfn.  Coefficient  Atom+Function         Bfn.  Coefficient  Atom+Function  
  ----- ------------  ---------------      ----- ------------  ---------------
   383     12.534278  21 C  px              342     11.142972  19 N  s         
   528     -8.696850  29 C  s               217     -8.243723  14 C  s         
   299     -8.250644  17 C  px              300      7.894484  17 C  py        
    63      7.371516   5 C  px              418      7.272792  23 C  py        
    12      7.194642   2 C  s               350      6.799792  19 N  py        

 Vector  179  Occ=0.000000D+00  E= 4.216365D-01
              MO Center=  2.6D-01,  5.3D-01,  1.3D-01, r^2= 2.2D+01
   Bfn.  Coefficient  Atom+Function         Bfn.  Coefficient  Atom+Function  
  ----- ------------  ---------------      ----- ------------  ---------------
   528     23.471246  29 C  s               453     22.925269  26 C  s         
   410    -20.561083  23 C  s               148     14.007275   9 C  py        
   418     13.122869  23 C  py               13    -11.575412   2 C  s         
   106    -10.583359   7 N  s               578     -9.688858  31 N  s         
   299      7.569179  17 C  px              342      6.726066  19 N  s         

 Vector  180  Occ=0.000000D+00  E= 4.273211D-01
              MO Center=  5.6D-01,  1.6D-01,  1.3D-01, r^2= 2.2D+01
   Bfn.  Coefficient  Atom+Function         Bfn.  Coefficient  Atom+Function  
  ----- ------------  ---------------      ----- ------------  ---------------
   410     28.417490  23 C  s                56    -20.010419   5 C  s         
   113     13.360421   7 N  px              528    -12.941384  29 C  s         
   147     11.218896   9 C  px              383     11.085410  21 C  px        
    13    -10.191063   2 C  s               453     -9.619208  26 C  s         
   578      9.120550  31 N  s               217      8.917505  14 C  s         

 Vector  181  Occ=0.000000D+00  E= 4.293972D-01
              MO Center=  3.3D-02,  3.1D-01, -8.2D-03, r^2= 2.4D+01
   Bfn.  Coefficient  Atom+Function         Bfn.  Coefficient  Atom+Function  
  ----- ------------  ---------------      ----- ------------  ---------------
   528     28.680610  29 C  s               578    -19.011817  31 N  s         
    13    -10.861602   2 C  s               384     10.360249  21 C  py        
   147      8.179489   9 C  px              299     -7.938925  17 C  px        
   106     -7.787594   7 N  s               300      7.792767  17 C  py        
   182      7.321888  11 C  py              536     -7.310318  29 C  py        

 Vector  182  Occ=0.000000D+00  E= 4.320276D-01
              MO Center=  4.9D-02,  8.4D-01,  2.8D-01, r^2= 1.9D+01
   Bfn.  Coefficient  Atom+Function         Bfn.  Coefficient  Atom+Function  
  ----- ------------  ---------------      ----- ------------  ---------------
   528    -15.454304  29 C  s               410     14.550247  23 C  s         
   453    -11.509323  26 C  s               383      9.002421  21 C  px        
   292      8.324902  17 C  s               148     -7.832947   9 C  py        
   174      7.117150  11 C  s               418     -5.851866  23 C  py        
   149      5.559899   9 C  pz              578     -5.548898  31 N  s         

 Vector  183  Occ=0.000000D+00  E= 4.368608D-01
              MO Center=  1.5D+00,  6.5D-01, -6.0D-01, r^2= 2.2D+01
   Bfn.  Coefficient  Atom+Function         Bfn.  Coefficient  Atom+Function  
  ----- ------------  ---------------      ----- ------------  ---------------
   453     16.908261  26 C  s               106    -10.702307   7 N  s         
   300     10.722480  17 C  py               56     10.204160   5 C  s         
   384      6.516154  21 C  py              149     -5.374371   9 C  pz        
   418      5.182700  23 C  py              114     -4.633751   7 N  py        
   478     -4.240535  27 O  s               349     -3.969190  19 N  px        

 Vector  184  Occ=0.000000D+00  E= 4.404995D-01
              MO Center=  6.4D-01,  3.6D-01, -1.5D-01, r^2= 2.2D+01
   Bfn.  Coefficient  Atom+Function         Bfn.  Coefficient  Atom+Function  
  ----- ------------  ---------------      ----- ------------  ---------------
   410     20.109122  23 C  s               217    -14.527011  14 C  s         
   106    -11.268030   7 N  s               174     10.843287  11 C  s         
   149     -8.183487   9 C  pz              300      6.181568  17 C  py        
   409      5.884389  23 C  s               442     -5.760643  25 H  s         
   578     -5.701090  31 N  s               182      5.431867  11 C  py        

 Vector  185  Occ=0.000000D+00  E= 4.439852D-01
              MO Center= -1.6D-01,  1.3D+00, -2.3D-02, r^2= 1.9D+01
   Bfn.  Coefficient  Atom+Function         Bfn.  Coefficient  Atom+Function  
  ----- ------------  ---------------      ----- ------------  ---------------
   217     18.268947  14 C  s               174    -13.929704  11 C  s         
   292    -11.822073  17 C  s               410     10.385441  23 C  s         
   140     -9.128466   9 C  s               384      8.309905  21 C  py        
   267     -5.856976  16 O  s               350      5.802463  19 N  py        
   197      5.756393  12 H  s               317      5.732960  18 O  s         

 Vector  186  Occ=0.000000D+00  E= 4.458488D-01
              MO Center= -4.6D-01, -1.8D-01, -1.6D-01, r^2= 2.4D+01
   Bfn.  Coefficient  Atom+Function         Bfn.  Coefficient  Atom+Function  
  ----- ------------  ---------------      ----- ------------  ---------------
   106      9.975555   7 N  s               384      8.737837  21 C  py        
   174     -8.066810  11 C  s               418     -8.100781  23 C  py        
    63      7.576580   5 C  px              197      6.366406  12 H  s         
   299     -6.370655  17 C  px              149      6.175199   9 C  pz        
   419     -6.091644  23 C  pz              442     -6.051811  25 H  s         

 Vector  187  Occ=0.000000D+00  E= 4.473536D-01
              MO Center=  1.9D-01,  1.2D+00, -5.6D-01, r^2= 2.0D+01
   Bfn.  Coefficient  Atom+Function         Bfn.  Coefficient  Atom+Function  
  ----- ------------  ---------------      ----- ------------  ---------------
   217     23.073998  14 C  s               528     14.433299  29 C  s         
   106     13.736642   7 N  s               410    -13.602980  23 C  s         
   174    -12.535665  11 C  s               578     -7.916394  31 N  s         
   197      7.630291  12 H  s                64      7.577089   5 C  py        
   183      7.497397  11 C  pz              366      7.227243  20 H  s         

 Vector  188  Occ=0.000000D+00  E= 4.553779D-01
              MO Center= -2.5D-01, -2.1D-01, -1.0D-01, r^2= 2.2D+01
   Bfn.  Coefficient  Atom+Function         Bfn.  Coefficient  Atom+Function  
  ----- ------------  ---------------      ----- ------------  ---------------
   292     22.048745  17 C  s                13    -19.922917   2 C  s         
   410    -17.174566  23 C  s                63     11.278810   5 C  px        
   350     -9.144378  19 N  py              384     -8.943730  21 C  py        
   217      8.672104  14 C  s               174     -7.602059  11 C  s         
   376      7.591439  21 C  s               528     -7.431362  29 C  s         

 Vector  189  Occ=0.000000D+00  E= 4.566921D-01
              MO Center= -1.4D-01, -3.2D-01, -6.1D-02, r^2= 2.2D+01
   Bfn.  Coefficient  Atom+Function         Bfn.  Coefficient  Atom+Function  
  ----- ------------  ---------------      ----- ------------  ---------------
   528     38.083586  29 C  s               174    -20.079130  11 C  s         
   383    -15.361443  21 C  px              578    -12.221981  31 N  s         
   453    -11.226426  26 C  s               292     -9.786698  17 C  s         
    56      9.375513   5 C  s               300      8.379720  17 C  py        
   410     -8.173046  23 C  s               147     -8.018978   9 C  px        

 Vector  190  Occ=0.000000D+00  E= 4.605993D-01
              MO Center=  5.1D-01,  1.5D-01,  1.2D-01, r^2= 2.1D+01
   Bfn.  Coefficient  Atom+Function         Bfn.  Coefficient  Atom+Function  
  ----- ------------  ---------------      ----- ------------  ---------------
   106     19.662884   7 N  s               300    -18.667253  17 C  py        
   342    -15.841538  19 N  s               453    -10.732579  26 C  s         
   149     10.612416   9 C  pz              292     10.226722  17 C  s         
   528     -9.189210  29 C  s               301     -8.956275  17 C  pz        
   140      7.968659   9 C  s               217      7.164090  14 C  s         

 Vector  191  Occ=0.000000D+00  E= 4.635728D-01
              MO Center=  4.0D-01, -5.3D-01, -4.7D-01, r^2= 2.2D+01
   Bfn.  Coefficient  Atom+Function         Bfn.  Coefficient  Atom+Function  
  ----- ------------  ---------------      ----- ------------  ---------------
   528     44.130266  29 C  s               383    -22.149091  21 C  px        
   292    -21.419338  17 C  s               410    -19.087958  23 C  s         
   217     15.975594  14 C  s                13     13.401025   2 C  s         
   384     13.224242  21 C  py              578    -13.081898  31 N  s         
    56    -11.871480   5 C  s               453    -11.825240  26 C  s         

 Vector  192  Occ=0.000000D+00  E= 4.694353D-01
              MO Center=  2.4D-01,  1.4D+00,  2.5D-02, r^2= 1.9D+01
   Bfn.  Coefficient  Atom+Function         Bfn.  Coefficient  Atom+Function  
  ----- ------------  ---------------      ----- ------------  ---------------
    56     28.907567   5 C  s               174    -27.273553  11 C  s         
    13    -22.451999   2 C  s               217    -20.658779  14 C  s         
   292     17.772707  17 C  s               148     13.379415   9 C  py        
   384     12.095495  21 C  py              147    -11.405774   9 C  px        
   376     10.911785  21 C  s               410     10.242242  23 C  s         

 Vector  193  Occ=0.000000D+00  E= 4.758749D-01
              MO Center= -2.7D-01, -9.7D-02, -5.4D-02, r^2= 2.0D+01
   Bfn.  Coefficient  Atom+Function         Bfn.  Coefficient  Atom+Function  
  ----- ------------  ---------------      ----- ------------  ---------------
    56     18.833088   5 C  s               292     17.158673  17 C  s         
   342    -17.129255  19 N  s               106    -16.121804   7 N  s         
   453    -13.209621  26 C  s               174    -12.128301  11 C  s         
    13    -11.315904   2 C  s               528     10.308082  29 C  s         
   300      9.043987  17 C  py               12     -8.688358   2 C  s         

 Vector  194  Occ=0.000000D+00  E= 4.815064D-01
              MO Center=  3.7D-01, -4.2D-01, -7.5D-02, r^2= 2.1D+01
   Bfn.  Coefficient  Atom+Function         Bfn.  Coefficient  Atom+Function  
  ----- ------------  ---------------      ----- ------------  ---------------
   528     30.887367  29 C  s               174     16.469203  11 C  s         
    56    -12.297846   5 C  s               578    -12.353378  31 N  s         
   292    -12.043511  17 C  s               350     11.156623  19 N  py        
   217    -10.096307  14 C  s               383     -9.854087  21 C  px        
   113      9.714852   7 N  px              409     -8.907366  23 C  s         

 Vector  195  Occ=0.000000D+00  E= 4.925175D-01
              MO Center=  3.9D-01, -1.7D+00,  1.6D-01, r^2= 1.9D+01
   Bfn.  Coefficient  Atom+Function         Bfn.  Coefficient  Atom+Function  
  ----- ------------  ---------------      ----- ------------  ---------------
    56     11.827461   5 C  s               174    -11.023003  11 C  s         
   106    -10.290122   7 N  s               148      8.233276   9 C  py        
   453      7.047158  26 C  s               300      5.847329  17 C  py        
   503     -5.390964  28 O  s               149     -4.670588   9 C  pz        
   433     -4.448839  24 H  s               301      4.407046  17 C  pz        

 Vector  196  Occ=0.000000D+00  E= 4.948006D-01
              MO Center=  2.2D-01, -1.1D-01, -2.0D-01, r^2= 1.9D+01
   Bfn.  Coefficient  Atom+Function         Bfn.  Coefficient  Atom+Function  
  ----- ------------  ---------------      ----- ------------  ---------------
   174     15.894132  11 C  s               292    -15.209352  17 C  s         
   217    -11.541241  14 C  s                13     10.326791   2 C  s         
   376    -10.024616  21 C  s                56     -8.830726   5 C  s         
   385      7.829555  21 C  pz              350      6.923159  19 N  py        
   453      6.663125  26 C  s               384      6.468385  21 C  py        

 Vector  197  Occ=0.000000D+00  E= 4.985589D-01
              MO Center=  1.1D+00, -1.5D+00, -6.7D-02, r^2= 2.0D+01
   Bfn.  Coefficient  Atom+Function         Bfn.  Coefficient  Atom+Function  
  ----- ------------  ---------------      ----- ------------  ---------------
   528     21.551903  29 C  s               410    -19.107459  23 C  s         
   292    -12.110218  17 C  s               383    -11.076517  21 C  px        
    56     -7.480817   5 C  s               578     -6.846559  31 N  s         
   342      6.781196  19 N  s               113      6.197701   7 N  px        
   148      5.602542   9 C  py              217      5.600304  14 C  s         

 Vector  198  Occ=0.000000D+00  E= 5.034123D-01
              MO Center=  2.7D-01,  2.6D-01, -1.5D-02, r^2= 2.0D+01
   Bfn.  Coefficient  Atom+Function         Bfn.  Coefficient  Atom+Function  
  ----- ------------  ---------------      ----- ------------  ---------------
    13     15.350437   2 C  s               528    -13.527246  29 C  s         
   300    -12.012087  17 C  py              147    -11.582035   9 C  px        
    63    -10.694992   5 C  px              197      9.655628  12 H  s         
   173     -8.484163  11 C  s               149      7.334970   9 C  pz        
    65      7.231707   5 C  pz              292     -6.176288  17 C  s         


 center of mass
 --------------
 x =  -0.04309708 y =  -0.01683966 z =   0.01835895

 moments of inertia (a.u.)
 ------------------
       10128.253579617582           0.000000000001          -0.000000000001
           0.000000000001        3423.342352610482           0.000000000000
          -0.000000000001           0.000000000000       12035.983450900394

  Mulliken analysis of the total density
  --------------------------------------

    Atom       Charge   Shell Charges
 -----------   ------   -------------------------------------------------------
    1 H    1     0.97   0.76  0.22  0.01  0.03 -0.06
    2 C    6     6.37   2.01  0.66  0.29  0.16  2.07  1.02 -0.00  0.06  0.10
    3 H    1     0.83   0.76  0.09  0.01  0.03 -0.06
    4 H    1     0.85   0.76  0.12  0.00  0.03 -0.06
    5 C    6     5.16   2.01  0.68  0.12 -0.09  1.90  0.38 -0.02  0.24 -0.06
    6 O    8     8.72   2.01  0.82  1.00  0.17  2.77  1.81  0.14  0.01 -0.02
    7 N    7     7.48   2.01  0.72  0.78 -0.12  2.44  1.44  0.14  0.05  0.02
    8 H    1     0.88   0.72  0.19 -0.01  0.06 -0.09
    9 C    6     6.55   2.01  0.67  0.22 -0.05  1.98  1.28  0.12  0.13  0.19
   10 H    1     1.12   0.77  0.30 -0.01  0.03  0.04
   11 C    6     6.63   2.01  0.67  0.73  0.07  2.03  0.81 -0.01  0.08  0.24
   12 H    1     0.76   0.77  0.02  0.00  0.03 -0.06
   13 H    1     0.88   0.76  0.15  0.00  0.03 -0.07
   14 C    6     4.36   2.01  0.68  0.08 -0.25  1.87 -0.03 -0.01  0.26 -0.23
   15 O    8     8.69   2.01  0.83  1.01  0.17  2.74  1.82  0.13  0.01 -0.03
   16 O    8     8.55   2.01  0.84  1.01  0.16  2.71  1.73  0.12  0.01 -0.03
   17 C    6     4.29   2.01  0.68 -0.04 -0.14  1.88  0.01  0.00  0.23 -0.35
   18 O    8     8.74   2.01  0.83  1.03  0.18  2.76  1.81  0.12  0.01 -0.01
   19 N    7     7.46   2.01  0.73  0.80 -0.09  2.40  1.42  0.09  0.05  0.03
   20 H    1     0.89   0.73  0.21 -0.04  0.06 -0.07
   21 C    6     6.01   2.01  0.67  0.12  0.00  1.98  1.15 -0.05  0.13 -0.02
   22 H    1     1.13   0.76  0.31 -0.01  0.03  0.03
   23 C    6     6.87   2.01  0.69  0.54  0.34  2.00  1.00 -0.00  0.08  0.21
   24 H    1     0.81   0.76  0.08  0.01  0.03 -0.07
   25 H    1     0.78   0.76  0.04  0.01  0.03 -0.07
   26 C    6     4.35   2.01  0.69  0.07 -0.28  1.84 -0.00 -0.02  0.26 -0.21
   27 O    8     8.53   2.01  0.85  1.02  0.16  2.69  1.72  0.12  0.01 -0.03
   28 O    8     8.78   2.01  0.82  1.00  0.17  2.77  1.87  0.16  0.01 -0.03
   29 C    6     4.67   2.01  0.68  0.06  0.08  1.89 -0.14 -0.01  0.23 -0.12
   30 O    8     8.81   2.01  0.82  1.03  0.16  2.79  1.85  0.14  0.01 -0.00
   31 N    7     7.23   2.01  0.72  0.86 -0.18  2.46  1.25  0.09  0.04 -0.02
   32 H    1     1.00   0.75  0.22 -0.01  0.05 -0.02
   33 H    1     0.87   0.72  0.17 -0.01  0.06 -0.07

       Multipole analysis of the density wrt the origin
       ------------------------------------------------

     L   x y z        total         open         nuclear
     -   - - -        -----         ----         -------
     0   0 0 0     -0.000000      0.000000    150.000000

     1   1 0 0      0.361804      0.000000      0.000000
     1   0 1 0     -0.254431      0.000000     -0.000000
     1   0 0 1     -0.824002      0.000000     -0.000000

     2   2 0 0    -90.110656      0.000000   1435.381545
     2   1 1 0     -1.206706      0.000000     14.657512
     2   1 0 1     -1.288685      0.000000    -14.741255
     2   0 2 0   -112.725977      0.000000   4854.741953
     2   0 1 1      1.675973      0.000000     -9.598467
     2   0 0 2    -96.048596      0.000000    402.487585

 ------------------------------------------------------------------------
 scf energy failed                                                                                  0
 ------------------------------------------------------------------------
 ------------------------------------------------------------------------
  current input line : 
    48: task scf energy
 ------------------------------------------------------------------------
 ------------------------------------------------------------------------
 This type of error is most commonly associated with calculations not reaching convergence criteria
 ------------------------------------------------------------------------
 For more information see the NWChem manual at https://nwchemgit.github.io


 For further details see manual section:                                                                                                                                                                                                                                                                
0:scf energy failed:Received an Error in Communication
--------------------------------------------------------------------------
MPI_ABORT was invoked on rank 0 in communicator MPI COMMUNICATOR 3 DUP FROM 0
with errorcode -1.

NOTE: invoking MPI_ABORT causes Open MPI to kill all MPI processes.
You may or may not see output from other processes, depending on
exactly when Open MPI kills them.
--------------------------------------------------------------------------
slurmstepd: error: *** STEP 6619389.92 ON nova21-swift-1 CANCELLED AT 2025-07-10T21:07:20 ***
srun: Job step aborted: Waiting up to 32 seconds for job step to finish.
srun: error: nova21-swift-1: task 0: Exited with exit code 255
srun: error: nova21-swift-1: tasks 1-7: Killed
