export TMOUT=5400
export TMPDIR=/tmp
export PTMPDIR=/tmp/ptmp
 argument  1 = inputs/ASP_ALA_1.nw



============================== echo of input deck ==============================
start ASP_ALA_1
geometry
H          8.48200        5.15100        1.68700
C          8.22000        6.03600        2.26100
H          8.20500        6.90800        1.61200
H          8.95000        6.18300        3.05500
C          6.85100        5.85100        2.88300
O          6.72900        5.91900        4.09700
N          5.79400        5.63500        2.10500
H          4.90200        5.57200        2.57400
C          5.75000        5.53100        0.63800
H          6.51700        6.17300        0.20500
C          6.03400        4.07800        0.20500
H          6.98100        3.74500        0.63000
H          5.24300        3.43100        0.58800
C          6.11500        3.94800       -1.31900
O          5.53600        2.98000       -1.85200
O          6.64200        4.89100       -1.95300
C          4.39100        6.00800        0.07700
O          3.40600        6.10900        0.80900
N          4.33600        6.29500       -1.22700
H          5.17700        6.10400       -1.77100
C          3.10900        6.60000       -1.96300
H          2.46000        7.20300       -1.32600
C          3.50000        7.43800       -3.18800
H          4.15200        6.85600       -3.84100
H          2.60200        7.72100       -3.73800
H          4.02100        8.34000       -2.86700
C          2.29800        5.35100       -2.37900
O          1.12800        5.46900       -2.73600
N          2.86800        4.15000       -2.36800
H          3.84600        4.03000       -2.12500
H          2.32000        3.35400       -2.64000
end

basis
 * library aug-cc-pvdz
end

echo

scf
 direct
end

task scf energy
================================================================================


                                         
                                         


             Northwest Computational Chemistry Package (NWChem) 7.2.0
             --------------------------------------------------------


                    Environmental Molecular Sciences Laboratory
                       Pacific Northwest National Laboratory
                                Richland, WA 99352

                              Copyright (c) 1994-2022
                       Pacific Northwest National Laboratory
                            Battelle Memorial Institute

             NWChem is an open-source computational chemistry package
                        distributed under the terms of the
                      Educational Community License (ECL) 2.0
             A copy of the license is included with this distribution
                              in the LICENSE.TXT file

                                  ACKNOWLEDGMENT
                                  --------------

            This software and its documentation were developed at the
            EMSL at Pacific Northwest National Laboratory, a multiprogram
            national laboratory, operated for the U.S. Department of Energy
            by Battelle under Contract Number DE-AC05-76RL01830. Support
            for this work was provided by the Department of Energy Office
            of Biological and Environmental Research, Office of Basic
            Energy Sciences, and the Office of Advanced Scientific Computing.


           Job information
           ---------------

    hostname        = nova21-speedy-12
    program         = /opt/rit/el9/20230413/app/linux-rhel9-x86_64_v3/gcc-11.2.1/nwchem-7.2.0-oxtctbuhfuzyfaoziquq6bki22grib3g/bin/nwchem
    date            = Thu Jul 10 09:26:34 2025

    compiled        = Wed_May_17_23:46:39_2023
    source          = /tmp/root/spack-stage/spack-stage-nwchem-7.2.0-oxtctbuhfuzyfaoziquq6bki22grib3g/spack-src
    nwchem branch   = 7.2.0
    nwchem revision = d0d141fd
    ga revision     = 5.8.0
    use scalapack   = T
    input           = inputs/ASP_ALA_1.nw
    prefix          = ASP_ALA_1.
    data base       = ./ASP_ALA_1.db
    status          = startup
    nproc           =        8
    time left       =     -1s



           Memory information
           ------------------

    heap     =   26214398 doubles =    200.0 Mbytes
    stack    =   26214395 doubles =    200.0 Mbytes
    global   =   52428800 doubles =    400.0 Mbytes (distinct from heap & stack)
    total    =  104857593 doubles =    800.0 Mbytes
    verify   = yes
    hardfail = no 


           Directory information
           ---------------------

  0 permanent = .
  0 scratch   = .




                                NWChem Input Module
                                -------------------



 Scaling coordinates for geometry "geometry" by  1.889725989
 (inverse scale =  0.529177249)

 C1  symmetry detected

          ------
          auto-z
          ------
  no constraints, skipping    0.0000000000000000     
  no constraints, skipping    0.0000000000000000     


                             Geometry "geometry" -> ""
                             -------------------------

 Output coordinates in angstroms (scale by  1.889725989 to convert to a.u.)

  No.       Tag          Charge          X              Y              Z
 ---- ---------------- ---------- -------------- -------------- --------------
    1 H                    1.0000    -1.34737973     3.86675340     0.71315925
    2 C                    6.0000    -0.34127618     4.16103978     1.00038073
    3 H                    1.0000    -0.05943076     3.66443948     1.92545441
    4 H                    1.0000    -0.30403715     5.24020945     1.13804365
    5 C                    6.0000     0.63295078     3.77329940    -0.09314989
    6 O                    8.0000     1.31569146     4.63726617    -0.62299004
    7 N                    7.0000     0.75023101     2.49843207    -0.45390970
    8 H                    1.0000     1.45269921     2.29614495    -1.15048156
    9 C                    6.0000     0.02354779     1.33292745     0.07369950
   10 H                    1.0000    -0.20632405     1.49422288     1.12683042
   11 C                    6.0000    -1.30470183     1.15170977    -0.68936479
   12 H                    1.0000    -1.88415256     2.07399154    -0.64513594
   13 H                    1.0000    -1.08730545     0.93643029    -1.73692030
   14 C                    6.0000    -2.14874776     0.02069211    -0.09403083
   15 O                    8.0000    -2.69516810    -0.77535212    -0.88402602
   16 O                    8.0000    -2.13228494    -0.12015874     1.15048675
   17 C                    6.0000     0.87731433     0.04724503    -0.01135585
   18 O                    8.0000     1.86543032    -0.00735390    -0.74408755
   19 N                    7.0000     0.49119612    -0.99211758     0.73459864
   20 H                    1.0000    -0.38385993    -0.88464407     1.24687235
   21 C                    6.0000     1.07209071    -2.33282231     0.66164461
   22 H                    1.0000     2.14936938    -2.23955830     0.51552314
   23 C                    6.0000     0.82381142    -3.01914814     2.01185357
   24 H                    1.0000    -0.24883218    -3.12253195     2.18210191
   25 H                    1.0000     1.28311876    -4.00809531     2.00821156
   26 H                    1.0000     1.26198928    -2.42510283     2.81384879
   27 C                    6.0000     0.53138565    -3.19000442    -0.50611174
   28 O                    8.0000     1.13197090    -4.20450479    -0.85304020
   29 N                    7.0000    -0.59197605    -2.84207597    -1.12613293
   30 H                    1.0000    -1.13394174    -2.03734030    -0.82846418
   31 H                    1.0000    -0.92143724    -3.41339381    -1.88307101

      Atomic Mass 
      ----------- 

      H                  1.007825
      C                 12.000000
      O                 15.994910
      N                 14.003070


 Effective nuclear repulsion energy (a.u.)    1287.0157579917

            Nuclear Dipole moment (a.u.) 
            ----------------------------
        X                 Y               Z
 ---------------- ---------------- ----------------
     0.0000000000     0.0000000000    -0.0000000000



                                Z-matrix (autoz)
                                -------- 

 Units are Angstrom for bonds and degrees for angles

      Type          Name      I     J     K     L     M      Value
      ----------- --------  ----- ----- ----- ----- ----- ----------
    1 Stretch                  1     2                       1.08690
    2 Stretch                  2     3                       1.08711
    3 Stretch                  2     4                       1.08855
    4 Stretch                  2     5                       1.51501
    5 Stretch                  5     6                       1.22201
    6 Stretch                  5     7                       1.33011
    7 Stretch                  7     8                       1.00975
    8 Stretch                  7     9                       1.47134
    9 Stretch                  9    10                       1.08993
   10 Stretch                  9    11                       1.54252
   11 Stretch                  9    17                       1.54568
   12 Stretch                 11    12                       1.09010
   13 Stretch                 11    13                       1.09132
   14 Stretch                 11    14                       1.53168
   15 Stretch                 14    15                       1.24754
   16 Stretch                 14    16                       1.25257
   17 Stretch                 17    18                       1.23136
   18 Stretch                 17    19                       1.33634
   19 Stretch                 19    20                       1.01966
   20 Stretch                 19    21                       1.46296
   21 Stretch                 21    22                       1.09114
   22 Stretch                 21    23                       1.53485
   23 Stretch                 21    27                       1.54621
   24 Stretch                 23    24                       1.09098
   25 Stretch                 23    25                       1.09041
   26 Stretch                 23    26                       1.08999
   27 Stretch                 27    28                       1.22893
   28 Stretch                 27    29                       1.32944
   29 Stretch                 29    30                       1.01486
   30 Stretch                 29    31                       1.00394
   31 Bend                     1     2     3               109.94844
   32 Bend                     1     2     4               109.48200
   33 Bend                     1     2     5               109.58540
   34 Bend                     2     5     6               119.42509
   35 Bend                     2     5     7               119.85269
   36 Bend                     3     2     4               109.65688
   37 Bend                     3     2     5               109.30403
   38 Bend                     4     2     5               108.84498
   39 Bend                     5     7     8               116.13316
   40 Bend                     5     7     9               128.20175
   41 Bend                     6     5     7               120.71589
   42 Bend                     7     9    10               109.47667
   43 Bend                     7     9    11               109.93527
   44 Bend                     7     9    17               111.49105
   45 Bend                     8     7     9               115.61197
   46 Bend                     9    11    12               109.77046
   47 Bend                     9    11    13               109.05594
   48 Bend                     9    11    14               111.65325
   49 Bend                     9    17    18               120.85514
   50 Bend                     9    17    19               117.16960
   51 Bend                    10     9    11               108.28620
   52 Bend                    10     9    17               107.02323
   53 Bend                    11     9    17               110.52942
   54 Bend                    11    14    15               117.80164
   55 Bend                    11    14    16               117.51455
   56 Bend                    12    11    13               108.16359
   57 Bend                    12    11    14               108.42417
   58 Bend                    13    11    14               109.70660
   59 Bend                    15    14    16               124.27566
   60 Bend                    17    19    20               116.51461
   61 Bend                    17    19    21               124.76471
   62 Bend                    18    17    19               121.97428
   63 Bend                    19    21    22               108.68542
   64 Bend                    19    21    23               107.55949
   65 Bend                    19    21    27               114.00749
   66 Bend                    20    19    21               117.54247
   67 Bend                    21    23    24               109.79743
   68 Bend                    21    23    25               109.54081
   69 Bend                    21    23    26               109.78774
   70 Bend                    21    27    28               119.99667
   71 Bend                    21    27    29               120.17396
   72 Bend                    22    21    23               108.40521
   73 Bend                    22    21    27               106.94783
   74 Bend                    23    21    27               111.09531
   75 Bend                    24    23    25               109.19120
   76 Bend                    24    23    26               109.39448
   77 Bend                    25    23    26               109.11177
   78 Bend                    27    29    30               121.46518
   79 Bend                    27    29    31               118.68510
   80 Bend                    28    27    29               119.82388
   81 Bend                    30    29    31               119.81125
   82 Torsion                  1     2     5     6         121.54700
   83 Torsion                  1     2     5     7         -59.36133
   84 Torsion                  2     5     7     8        -176.64457
   85 Torsion                  2     5     7     9           0.56611
   86 Torsion                  3     2     5     6        -117.90069
   87 Torsion                  3     2     5     7          61.19098
   88 Torsion                  4     2     5     6           1.84582
   89 Torsion                  4     2     5     7        -179.06251
   90 Torsion                  5     7     9    10         -31.93976
   91 Torsion                  5     7     9    11          86.89537
   92 Torsion                  5     7     9    17        -150.16755
   93 Torsion                  6     5     7     8           2.43518
   94 Torsion                  6     5     7     9         179.64585
   95 Torsion                  7     9    11    12         -54.91970
   96 Torsion                  7     9    11    13          63.41491
   97 Torsion                  7     9    11    14        -175.18756
   98 Torsion                  7     9    17    18         -17.33995
   99 Torsion                  7     9    17    19         163.01153
  100 Torsion                  8     7     9    10         145.28320
  101 Torsion                  8     7     9    11         -95.88167
  102 Torsion                  8     7     9    17          27.05541
  103 Torsion                  9    11    14    15        -136.18850
  104 Torsion                  9    11    14    16          36.79681
  105 Torsion                  9    17    19    20           4.88532
  106 Torsion                  9    17    19    21         172.13237
  107 Torsion                 10     9    11    12          64.64400
  108 Torsion                 10     9    11    13        -177.02139
  109 Torsion                 10     9    11    14         -55.62386
  110 Torsion                 10     9    17    18        -137.02987
  111 Torsion                 10     9    17    19          43.32161
  112 Torsion                 11     9    17    18         105.25690
  113 Torsion                 11     9    17    19         -74.39162
  114 Torsion                 12    11     9    17        -178.42078
  115 Torsion                 12    11    14    15         102.75736
  116 Torsion                 12    11    14    16         -84.25733
  117 Torsion                 13    11     9    17         -60.08617
  118 Torsion                 13    11    14    15         -15.16879
  119 Torsion                 13    11    14    16         157.81652
  120 Torsion                 14    11     9    17          61.31136
  121 Torsion                 17    19    21    22          38.48208
  122 Torsion                 17    19    21    23         155.65080
  123 Torsion                 17    19    21    27         -80.69363
  124 Torsion                 18    17    19    20        -174.75898
  125 Torsion                 18    17    19    21          -7.51193
  126 Torsion                 19    21    23    24          62.55020
  127 Torsion                 19    21    23    25        -177.55003
  128 Torsion                 19    21    23    26         -57.75378
  129 Torsion                 19    21    27    28         164.20121
  130 Torsion                 19    21    27    29         -16.65258
  131 Torsion                 20    19    21    22        -154.39012
  132 Torsion                 20    19    21    23         -37.22141
  133 Torsion                 20    19    21    27          86.43417
  134 Torsion                 21    27    29    30          -2.42150
  135 Torsion                 21    27    29    31         179.83933
  136 Torsion                 22    21    23    24         179.90135
  137 Torsion                 22    21    23    25         -60.19887
  138 Torsion                 22    21    23    26          59.59737
  139 Torsion                 22    21    27    28          44.04505
  140 Torsion                 22    21    27    29        -136.80873
  141 Torsion                 23    21    27    28         -74.07615
  142 Torsion                 23    21    27    29         105.07007
  143 Torsion                 24    23    21    27         -62.86294
  144 Torsion                 25    23    21    27          57.03683
  145 Torsion                 26    23    21    27         176.83308
  146 Torsion                 28    27    29    30         176.72620
  147 Torsion                 28    27    29    31          -1.01297


            XYZ format geometry
            -------------------
    31
 geometry
 H                    -1.34737973     3.86675340     0.71315925
 C                    -0.34127618     4.16103978     1.00038073
 H                    -0.05943076     3.66443948     1.92545441
 H                    -0.30403715     5.24020945     1.13804365
 C                     0.63295078     3.77329940    -0.09314989
 O                     1.31569146     4.63726617    -0.62299004
 N                     0.75023101     2.49843207    -0.45390970
 H                     1.45269921     2.29614495    -1.15048156
 C                     0.02354779     1.33292745     0.07369950
 H                    -0.20632405     1.49422288     1.12683042
 C                    -1.30470183     1.15170977    -0.68936479
 H                    -1.88415256     2.07399154    -0.64513594
 H                    -1.08730545     0.93643029    -1.73692030
 C                    -2.14874776     0.02069211    -0.09403083
 O                    -2.69516810    -0.77535212    -0.88402602
 O                    -2.13228494    -0.12015874     1.15048675
 C                     0.87731433     0.04724503    -0.01135585
 O                     1.86543032    -0.00735390    -0.74408755
 N                     0.49119612    -0.99211758     0.73459864
 H                    -0.38385993    -0.88464407     1.24687235
 C                     1.07209071    -2.33282231     0.66164461
 H                     2.14936938    -2.23955830     0.51552314
 C                     0.82381142    -3.01914814     2.01185357
 H                    -0.24883218    -3.12253195     2.18210191
 H                     1.28311876    -4.00809531     2.00821156
 H                     1.26198928    -2.42510283     2.81384879
 C                     0.53138565    -3.19000442    -0.50611174
 O                     1.13197090    -4.20450479    -0.85304020
 N                    -0.59197605    -2.84207597    -1.12613293
 H                    -1.13394174    -2.03734030    -0.82846418
 H                    -0.92143724    -3.41339381    -1.88307101

 ==============================================================================
                                internuclear distances
 ------------------------------------------------------------------------------
       center one      |      center two      | atomic units |  angstroms
 ------------------------------------------------------------------------------
    2 C                |   1 H                |     2.05394  |     1.08690
    3 H                |   2 C                |     2.05434  |     1.08711
    4 H                |   2 C                |     2.05706  |     1.08855
    5 C                |   2 C                |     2.86296  |     1.51501
    6 O                |   5 C                |     2.30926  |     1.22201
    7 N                |   5 C                |     2.51354  |     1.33011
    8 H                |   7 N                |     1.90815  |     1.00975
    9 C                |   7 N                |     2.78043  |     1.47134
   10 H                |   9 C                |     2.05966  |     1.08993
   11 C                |   9 C                |     2.91493  |     1.54252
   12 H                |  11 C                |     2.05999  |     1.09010
   13 H                |  11 C                |     2.06230  |     1.09132
   14 C                |  11 C                |     2.89445  |     1.53168
   15 O                |  14 C                |     2.35751  |     1.24754
   16 O                |  14 C                |     2.36702  |     1.25257
   17 C                |   9 C                |     2.92091  |     1.54568
   18 O                |  17 C                |     2.32693  |     1.23136
   19 N                |  17 C                |     2.52532  |     1.33634
   20 H                |  19 N                |     1.92687  |     1.01966
   21 C                |  19 N                |     2.76459  |     1.46296
   22 H                |  21 C                |     2.06195  |     1.09114
   23 C                |  21 C                |     2.90044  |     1.53485
   24 H                |  23 C                |     2.06165  |     1.09098
   25 H                |  23 C                |     2.06058  |     1.09041
   26 H                |  23 C                |     2.05979  |     1.08999
   27 C                |  21 C                |     2.92192  |     1.54621
   28 O                |  27 C                |     2.32234  |     1.22893
   29 N                |  27 C                |     2.51229  |     1.32944
   30 H                |  29 N                |     1.91780  |     1.01486
   31 H                |  29 N                |     1.89718  |     1.00394
 ------------------------------------------------------------------------------
                         number of included internuclear distances:         30
 ==============================================================================



 ==============================================================================
                                 internuclear angles
 ------------------------------------------------------------------------------
        center 1       |       center 2       |       center 3       |  degrees
 ------------------------------------------------------------------------------
    1 H                |   2 C                |   3 H                |   109.95
    1 H                |   2 C                |   4 H                |   109.48
    1 H                |   2 C                |   5 C                |   109.59
    3 H                |   2 C                |   4 H                |   109.66
    3 H                |   2 C                |   5 C                |   109.30
    4 H                |   2 C                |   5 C                |   108.84
    2 C                |   5 C                |   6 O                |   119.43
    2 C                |   5 C                |   7 N                |   119.85
    6 O                |   5 C                |   7 N                |   120.72
    5 C                |   7 N                |   8 H                |   116.13
    5 C                |   7 N                |   9 C                |   128.20
    8 H                |   7 N                |   9 C                |   115.61
    7 N                |   9 C                |  10 H                |   109.48
    7 N                |   9 C                |  11 C                |   109.94
    7 N                |   9 C                |  17 C                |   111.49
   10 H                |   9 C                |  11 C                |   108.29
   10 H                |   9 C                |  17 C                |   107.02
   11 C                |   9 C                |  17 C                |   110.53
    9 C                |  11 C                |  12 H                |   109.77
    9 C                |  11 C                |  13 H                |   109.06
    9 C                |  11 C                |  14 C                |   111.65
   12 H                |  11 C                |  13 H                |   108.16
   12 H                |  11 C                |  14 C                |   108.42
   13 H                |  11 C                |  14 C                |   109.71
   11 C                |  14 C                |  15 O                |   117.80
   11 C                |  14 C                |  16 O                |   117.51
   15 O                |  14 C                |  16 O                |   124.28
    9 C                |  17 C                |  18 O                |   120.86
    9 C                |  17 C                |  19 N                |   117.17
   18 O                |  17 C                |  19 N                |   121.97
   17 C                |  19 N                |  20 H                |   116.51
   17 C                |  19 N                |  21 C                |   124.76
   20 H                |  19 N                |  21 C                |   117.54
   19 N                |  21 C                |  22 H                |   108.69
   19 N                |  21 C                |  23 C                |   107.56
   19 N                |  21 C                |  27 C                |   114.01
   22 H                |  21 C                |  23 C                |   108.41
   22 H                |  21 C                |  27 C                |   106.95
   23 C                |  21 C                |  27 C                |   111.10
   21 C                |  23 C                |  24 H                |   109.80
   21 C                |  23 C                |  25 H                |   109.54
   21 C                |  23 C                |  26 H                |   109.79
   24 H                |  23 C                |  25 H                |   109.19
   24 H                |  23 C                |  26 H                |   109.39
   25 H                |  23 C                |  26 H                |   109.11
   21 C                |  27 C                |  28 O                |   120.00
   21 C                |  27 C                |  29 N                |   120.17
   28 O                |  27 C                |  29 N                |   119.82
   27 C                |  29 N                |  30 H                |   121.47
   27 C                |  29 N                |  31 H                |   118.69
   30 H                |  29 N                |  31 H                |   119.81
 ------------------------------------------------------------------------------
                            number of included internuclear angles:         51
 ==============================================================================



  library name resolved from: environment
  library file name is: </opt/rit/el9/20230413/app/linux-rhel9-x86_64_v3/gcc-11.2.1/nwchem-7.2.0-oxtctbuhfuzyfaoziquq6bki22grib3g/share/nwchem/libraries/>
  


 Summary of "ao basis" -> "" (cartesian)
 ------------------------------------------------------------------------------
       Tag                 Description            Shells   Functions and Types
 ---------------- ------------------------------  ------  ---------------------
 *                        aug-cc-pvdz                 on all atoms 


                      Basis "ao basis" -> "ao basis" (cartesian)
                      -----
  H (Hydrogen)
  ------------
            Exponent  Coefficients 
       -------------- ---------------------------------------------------------
  1 S  1.30100000E+01  0.019685
  1 S  1.96200000E+00  0.137977
  1 S  4.44600000E-01  0.478148

  2 S  1.22000000E-01  1.000000

  3 S  2.97400000E-02  1.000000

  4 P  7.27000000E-01  1.000000

  5 P  1.41000000E-01  1.000000

  C (Carbon)
  ----------
            Exponent  Coefficients 
       -------------- ---------------------------------------------------------
  1 S  6.66500000E+03  0.000692
  1 S  1.00000000E+03  0.005329
  1 S  2.28000000E+02  0.027077
  1 S  6.47100000E+01  0.101718
  1 S  2.10600000E+01  0.274740
  1 S  7.49500000E+00  0.448564
  1 S  2.79700000E+00  0.285074
  1 S  5.21500000E-01  0.015204

  2 S  6.66500000E+03 -0.000146
  2 S  1.00000000E+03 -0.001154
  2 S  2.28000000E+02 -0.005725
  2 S  6.47100000E+01 -0.023312
  2 S  2.10600000E+01 -0.063955
  2 S  7.49500000E+00 -0.149981
  2 S  2.79700000E+00 -0.127262
  2 S  5.21500000E-01  0.544529

  3 S  1.59600000E-01  1.000000

  4 S  4.69000000E-02  1.000000

  5 P  9.43900000E+00  0.038109
  5 P  2.00200000E+00  0.209480
  5 P  5.45600000E-01  0.508557

  6 P  1.51700000E-01  1.000000

  7 P  4.04100000E-02  1.000000

  8 D  5.50000000E-01  1.000000

  9 D  1.51000000E-01  1.000000

  O (Oxygen)
  ----------
            Exponent  Coefficients 
       -------------- ---------------------------------------------------------
  1 S  1.17200000E+04  0.000710
  1 S  1.75900000E+03  0.005470
  1 S  4.00800000E+02  0.027837
  1 S  1.13700000E+02  0.104800
  1 S  3.70300000E+01  0.283062
  1 S  1.32700000E+01  0.448719
  1 S  5.02500000E+00  0.270952
  1 S  1.01300000E+00  0.015458

  2 S  1.17200000E+04 -0.000160
  2 S  1.75900000E+03 -0.001263
  2 S  4.00800000E+02 -0.006267
  2 S  1.13700000E+02 -0.025716
  2 S  3.70300000E+01 -0.070924
  2 S  1.32700000E+01 -0.165411
  2 S  5.02500000E+00 -0.116955
  2 S  1.01300000E+00  0.557368

  3 S  3.02300000E-01  1.000000

  4 S  7.89600000E-02  1.000000

  5 P  1.77000000E+01  0.043018
  5 P  3.85400000E+00  0.228913
  5 P  1.04600000E+00  0.508728

  6 P  2.75300000E-01  1.000000

  7 P  6.85600000E-02  1.000000

  8 D  1.18500000E+00  1.000000

  9 D  3.32000000E-01  1.000000

  N (Nitrogen)
  ------------
            Exponent  Coefficients 
       -------------- ---------------------------------------------------------
  1 S  9.04600000E+03  0.000700
  1 S  1.35700000E+03  0.005389
  1 S  3.09300000E+02  0.027406
  1 S  8.77300000E+01  0.103207
  1 S  2.85600000E+01  0.278723
  1 S  1.02100000E+01  0.448540
  1 S  3.83800000E+00  0.278238
  1 S  7.46600000E-01  0.015440

  2 S  9.04600000E+03 -0.000153
  2 S  1.35700000E+03 -0.001208
  2 S  3.09300000E+02 -0.005992
  2 S  8.77300000E+01 -0.024544
  2 S  2.85600000E+01 -0.067459
  2 S  1.02100000E+01 -0.158078
  2 S  3.83800000E+00 -0.121831
  2 S  7.46600000E-01  0.549003

  3 S  2.24800000E-01  1.000000

  4 S  6.12400000E-02  1.000000

  5 P  1.35500000E+01  0.039919
  5 P  2.91700000E+00  0.217169
  5 P  7.97300000E-01  0.510319

  6 P  2.18500000E-01  1.000000

  7 P  5.61100000E-02  1.000000

  8 D  8.17000000E-01  1.000000

  9 D  2.30000000E-01  1.000000



 Summary of "ao basis" -> "ao basis" (cartesian)
 ------------------------------------------------------------------------------
       Tag                 Description            Shells   Functions and Types
 ---------------- ------------------------------  ------  ---------------------
 H                        aug-cc-pvdz                5        9   3s2p
 C                        aug-cc-pvdz                9       25   4s3p2d
 O                        aug-cc-pvdz                9       25   4s3p2d
 N                        aug-cc-pvdz                9       25   4s3p2d


 ------------------------------------------------------------------------
 scf: no. of closed-shell electrons is not even!                   0
 ------------------------------------------------------------------------
 ------------------------------------------------------------------------
  current input line : 
     0: 
 ------------------------------------------------------------------------
 ------------------------------------------------------------------------
 There is an error in the input file
 scf: no. of closed-shell electrons is not even!                   0
 ------------------------------------------------------------------------
 ------------------------------------------------------------------------
  current input line : 
     0: 
 ------------------------------------------------------------------------
 ------------------------------------------------------------------------
 There is an error in the input file
 ------------------------------------------------------------------------
 For more information see the NWChem manual at https://nwchemgit.github.io


 For further details see manual section:                                                                                                                                                                                                                                                                
 scf: no. of closed-shell electrons is not even!                   0
 ------------------------------------------------------------------------
 ------------------------------------------------------------------------
  current input line : 
     0: 
 ------------------------------------------------------------------------
 ------------------------------------------------------------------------
 There is an error in the input file
 ------------------------------------------------------------------------
 For more information see the NWChem manual at https://nwchemgit.github.io


 For further details see manual section:                                                                                                                                                                                                                                                                
 scf: no. of closed-shell electrons is not even!                   0
 ------------------------------------------------------------------------
 ------------------------------------------------------------------------
  current input line : 
     0: 
 ------------------------------------------------------------------------
 ------------------------------------------------------------------------
 There is an error in the input file
 ------------------------------------------------------------------------
 For more information see the NWChem manual at https://nwchemgit.github.io


 For further details see manual section:                                                                                                                                                                                                                                                                
 scf: no. of closed-shell electrons is not even!                   0
 ------------------------------------------------------------------------
 ------------------------------------------------------------------------
  current input line : 
     0: 
 ------------------------------------------------------------------------
 ------------------------------------------------------------------------
 There is an error in the input file
 ------------------------------------------------------------------------
 For more information see the NWChem manual at https://nwchemgit.github.io


 For further details see manual section:                                                                                                                                                                                                                                                                
 scf: no. of closed-shell electrons is not even!                   0
 ------------------------------------------------------------------------
 ------------------------------------------------------------------------
  current input line : 
     0: 
 ------------------------------------------------------------------------
 ------------------------------------------------------------------------
 There is an error in the input file
 ------------------------------------------------------------------------
 For more information see the NWChem manual at https://nwchemgit.github.io


 For further details see manual section:                                                                                                                                                                                                                                                                
 scf: no. of closed-shell electrons is not even!                   0
 ------------------------------------------------------------------------
 ------------------------------------------------------------------------
  current input line : 
     0: 
 ------------------------------------------------------------------------
 ------------------------------------------------------------------------
 There is an error in the input file
 ------------------------------------------------------------------------
 For more information see the NWChem manual at https://nwchemgit.github.io


 For further details see manual section:                                                                                                                                                                                                                                                                
 ------------------------------------------------------------------------
 For more information see the NWChem manual at https://nwchemgit.github.io


 For further details see manual section:                                                                                                                                                                                                                                                                
1:scf: no. of closed-shell electrons is not even!:Received an Error in Communication
2:scf: no. of closed-shell electrons is not even!:Received an Error in Communication
3:scf: no. of closed-shell electrons is not even!:Received an Error in Communication
4:scf: no. of closed-shell electrons is not even!:Received an Error in Communication
5:scf: no. of closed-shell electrons is not even!:Received an Error in Communication
6:scf: no. of closed-shell electrons is not even!:Received an Error in Communication
7:scf: no. of closed-shell electrons is not even!:Received an Error in Communication
 scf: no. of closed-shell electrons is not even!                   0
 ------------------------------------------------------------------------
 ------------------------------------------------------------------------
  current input line : 
    46: task scf energy
 ------------------------------------------------------------------------
 ------------------------------------------------------------------------
 There is an error in the input file
 ------------------------------------------------------------------------
 For more information see the NWChem manual at https://nwchemgit.github.io


 For further details see manual section:                                                                                                                                                                                                                                                                
0:scf: no. of closed-shell electrons is not even!:Received an Error in Communication
--------------------------------------------------------------------------
MPI_ABORT was invoked on rank 1 in communicator MPI COMMUNICATOR 3 DUP FROM 0
with errorcode -1.

NOTE: invoking MPI_ABORT causes Open MPI to kill all MPI processes.
You may or may not see output from other processes, depending on
exactly when Open MPI kills them.
--------------------------------------------------------------------------
--------------------------------------------------------------------------
MPI_ABORT was invoked on rank 3 in communicator MPI COMMUNICATOR 3 DUP FROM 0
with errorcode -1.

NOTE: invoking MPI_ABORT causes Open MPI to kill all MPI processes.
You may or may not see output from other processes, depending on
exactly when Open MPI kills them.
--------------------------------------------------------------------------
--------------------------------------------------------------------------
MPI_ABORT was invoked on rank 7 in communicator MPI COMMUNICATOR 3 DUP FROM 0
with errorcode -1.

NOTE: invoking MPI_ABORT causes Open MPI to kill all MPI processes.
You may or may not see output from other processes, depending on
exactly when Open MPI kills them.
--------------------------------------------------------------------------
--------------------------------------------------------------------------
MPI_ABORT was invoked on rank 0 in communicator MPI COMMUNICATOR 3 DUP FROM 0
with errorcode -1.

NOTE: invoking MPI_ABORT causes Open MPI to kill all MPI processes.
You may or may not see output from other processes, depending on
exactly when Open MPI kills them.
--------------------------------------------------------------------------
--------------------------------------------------------------------------
MPI_ABORT was invoked on rank 2 in communicator MPI COMMUNICATOR 3 DUP FROM 0
with errorcode -1.

NOTE: invoking MPI_ABORT causes Open MPI to kill all MPI processes.
You may or may not see output from other processes, depending on
exactly when Open MPI kills them.
--------------------------------------------------------------------------
--------------------------------------------------------------------------
MPI_ABORT was invoked on rank 4 in communicator MPI COMMUNICATOR 3 DUP FROM 0
with errorcode -1.

NOTE: invoking MPI_ABORT causes Open MPI to kill all MPI processes.
You may or may not see output from other processes, depending on
exactly when Open MPI kills them.
--------------------------------------------------------------------------
--------------------------------------------------------------------------
MPI_ABORT was invoked on rank 6 in communicator MPI COMMUNICATOR 3 DUP FROM 0
with errorcode -1.

NOTE: invoking MPI_ABORT causes Open MPI to kill all MPI processes.
You may or may not see output from other processes, depending on
exactly when Open MPI kills them.
--------------------------------------------------------------------------
--------------------------------------------------------------------------
MPI_ABORT was invoked on rank 5 in communicator MPI COMMUNICATOR 3 DUP FROM 0
with errorcode -1.

NOTE: invoking MPI_ABORT causes Open MPI to kill all MPI processes.
You may or may not see output from other processes, depending on
exactly when Open MPI kills them.
--------------------------------------------------------------------------
slurmstepd: error: *** STEP 6619389.73 ON nova21-speedy-12 CANCELLED AT 2025-07-10T09:26:34 ***
srun: Job step aborted: Waiting up to 32 seconds for job step to finish.
slurmstepd: error: --task-epilog failed status=9
srun: error: nova21-speedy-12: tasks 0-7: Killed
