export TMOUT=5400
export TMPDIR=/tmp
export PTMPDIR=/tmp/ptmp
 argument  1 = inputs/ASP_GLN_4.nw



============================== echo of input deck ==============================
start ASP_GLN_4
geometry
H          2.72600        8.49100       -1.19100
C          2.09100        8.59000       -0.31200
H          1.22300        7.94000       -0.40400
H          1.77800        9.62600       -0.20700
C          2.88700        8.19200        0.90500
O          3.13200        9.01700        1.77900
N          3.29300        6.92800        0.95400
H          3.08300        6.31200        0.17300
C          4.19300        6.36600        1.96900
H          3.97000        6.80900        2.94000
C          3.96900        4.84300        2.05700
H          4.55800        4.45500        2.89000
H          2.91700        4.64800        2.27400
C          4.35900        4.10300        0.76700
O          3.98700        4.58800       -0.32700
O          5.14000        3.13600        0.87500
C          5.67400        6.64700        1.64400
O          6.43900        7.05100        2.51900
N          6.06800        6.48900        0.37200
H          5.36700        6.10000       -0.25500
C          7.45800        6.51700       -0.10600
H          7.41300        6.23800       -1.15900
C          8.06400        7.94000       -0.05600
H          8.17000        8.27200        0.97600
H          9.07200        7.87800       -0.46900
C          7.32000        9.00300       -0.89000
H          8.00100        9.84100       -1.03000
H          7.09500        8.59000       -1.87300
C          6.03500        9.58000       -0.29200
O          5.16700       10.04200       -1.01400
N          5.84400        9.58600        1.00800
H          6.44600        9.03700        1.60500
H          4.90100        9.79700        1.31500
C          8.36700        5.44100        0.53800
O          9.58100        5.60600        0.62500
N          7.82600        4.31200        0.98400
H          8.42400        3.62700        1.40700
H          6.83400        4.12200        0.87600
end

basis
 * library aug-cc-pvdz
end

echo

scf
 direct
end

task scf energy
================================================================================


                                         
                                         


             Northwest Computational Chemistry Package (NWChem) 7.2.0
             --------------------------------------------------------


                    Environmental Molecular Sciences Laboratory
                       Pacific Northwest National Laboratory
                                Richland, WA 99352

                              Copyright (c) 1994-2022
                       Pacific Northwest National Laboratory
                            Battelle Memorial Institute

             NWChem is an open-source computational chemistry package
                        distributed under the terms of the
                      Educational Community License (ECL) 2.0
             A copy of the license is included with this distribution
                              in the LICENSE.TXT file

                                  ACKNOWLEDGMENT
                                  --------------

            This software and its documentation were developed at the
            EMSL at Pacific Northwest National Laboratory, a multiprogram
            national laboratory, operated for the U.S. Department of Energy
            by Battelle under Contract Number DE-AC05-76RL01830. Support
            for this work was provided by the Department of Energy Office
            of Biological and Environmental Research, Office of Basic
            Energy Sciences, and the Office of Advanced Scientific Computing.


           Job information
           ---------------

    hostname        = nova21-speedy-11
    program         = /opt/rit/el9/20230413/app/linux-rhel9-x86_64_v3/gcc-11.2.1/nwchem-7.2.0-oxtctbuhfuzyfaoziquq6bki22grib3g/bin/nwchem
    date            = Fri Jul 11 03:00:06 2025

    compiled        = Wed_May_17_23:46:39_2023
    source          = /tmp/root/spack-stage/spack-stage-nwchem-7.2.0-oxtctbuhfuzyfaoziquq6bki22grib3g/spack-src
    nwchem branch   = 7.2.0
    nwchem revision = d0d141fd
    ga revision     = 5.8.0
    use scalapack   = T
    input           = inputs/ASP_GLN_4.nw
    prefix          = ASP_GLN_4.
    data base       = ./ASP_GLN_4.db
    status          = startup
    nproc           =        8
    time left       =     -1s



           Memory information
           ------------------

    heap     =   26214396 doubles =    200.0 Mbytes
    stack    =   26214401 doubles =    200.0 Mbytes
    global   =   52428800 doubles =    400.0 Mbytes (distinct from heap & stack)
    total    =  104857597 doubles =    800.0 Mbytes
    verify   = yes
    hardfail = no 


           Directory information
           ---------------------

  0 permanent = .
  0 scratch   = .




                                NWChem Input Module
                                -------------------



 Scaling coordinates for geometry "geometry" by  1.889725989
 (inverse scale =  0.529177249)

 C1  symmetry detected

          ------
          auto-z
          ------
  no constraints, skipping    0.0000000000000000     
  no constraints, skipping    0.0000000000000000     


                             Geometry "geometry" -> ""
                             -------------------------

 Output coordinates in angstroms (scale by  1.889725989 to convert to a.u.)

  No.       Tag          Charge          X              Y              Z
 ---- ---------------- ---------- -------------- -------------- --------------
    1 H                    1.0000    -0.57996871     3.22017682    -1.82817496
    2 C                    6.0000    -1.17612062     3.66749636    -1.03433926
    3 H                    1.0000    -2.20733119     3.78299558    -1.36244394
    4 H                    1.0000    -0.75443616     4.63312528    -0.76594958
    5 C                    6.0000    -1.13303690     2.76129992     0.16984545
    6 O                    8.0000    -0.61790064     3.14683721     1.21412589
    7 N                    7.0000    -1.67022267     1.55582283     0.01756475
    8 H                    1.0000    -2.04535481     1.29425336    -0.89038586
    9 C                    6.0000    -1.61228916     0.47149003     1.00596502
   10 H                    1.0000    -1.70690867     0.88701947     2.00955927
   11 C                    6.0000    -2.78378345    -0.50054743     0.76062180
   12 H                    1.0000    -2.79728975    -1.23552060     1.56745884
   13 H                    1.0000    -3.72324408     0.05414142     0.80001734
   14 C                    6.0000    -2.68838896    -1.22716190    -0.59094445
   15 O                    8.0000    -2.39514501    -0.55146210    -1.60478998
   16 O                    8.0000    -2.77392618    -2.47185764    -0.57954718
   17 C                    6.0000    -0.28108548    -0.30342624     0.93283125
   18 O                    8.0000     0.33789226    -0.57862203     1.96006045
   19 N                    7.0000     0.19103698    -0.60662413    -0.28509955
   20 H                    1.0000    -0.42804145    -0.37913578    -1.06023950
   21 C                    6.0000     1.32663857    -1.49620564    -0.56868688
   22 H                    1.0000     1.35183672    -1.60501940    -1.65321426
   23 C                    6.0000     2.67914550    -0.86447439    -0.16088102
   24 H                    1.0000     2.73740497    -0.75669348     0.92146509
   25 H                    1.0000     3.46428191    -1.56586808    -0.44738529
   26 C                    6.0000     3.01867187     0.47088299    -0.85413676
   27 H                    1.0000     4.08888708     0.63428690    -0.73775993
   28 H                    1.0000     2.81031898     0.38105568    -1.91997123
   29 C                    6.0000     2.32488935     1.72611878    -0.32046370
   30 O                    8.0000     2.15874051     2.69715930    -1.03992661
   31 N                    7.0000     1.89505828     1.77872486     0.92009861
   32 H                    1.0000     1.84001613     0.93146786     1.46721829
   33 H                    1.0000     1.27791306     2.55214679     1.14138868
   34 C                    6.0000     1.14156325    -2.94084600    -0.04185261
   35 O                    8.0000     2.11012397    -3.64602997     0.22869443
   36 N                    7.0000    -0.08544966    -3.43159174     0.09902298
   37 H                    1.0000    -0.19220727    -4.36514576     0.44950508
   38 H                    1.0000    -0.90434034    -2.89356611    -0.16888461

      Atomic Mass 
      ----------- 

      H                  1.007825
      C                 12.000000
      O                 15.994910
      N                 14.003070


 Effective nuclear repulsion energy (a.u.)    1904.9988956258

            Nuclear Dipole moment (a.u.) 
            ----------------------------
        X                 Y               Z
 ---------------- ---------------- ----------------
    -0.0000000000     0.0000000000    -0.0000000000



                                Z-matrix (autoz)
                                -------- 

 Units are Angstrom for bonds and degrees for angles

      Type          Name      I     J     K     L     M      Value
      ----------- --------  ----- ----- ----- ----- ----- ----------
    1 Stretch                  1     2                       1.08888
    2 Stretch                  2     3                       1.08830
    3 Stretch                  2     4                       1.08733
    4 Stretch                  2     5                       1.50768
    5 Stretch                  5     6                       1.22659
    6 Stretch                  5     7                       1.32851
    7 Stretch                  7     8                       1.01662
    8 Stretch                  7     9                       1.46836
    9 Stretch                  9    10                       1.09033
   10 Stretch                  9    11                       1.54190
   11 Stretch                  9    17                       1.54206
   12 Stretch                 11    12                       1.09149
   13 Stretch                 11    13                       1.09170
   14 Stretch                 11    14                       1.53747
   15 Stretch                 14    15                       1.25317
   16 Stretch                 14    16                       1.24768
   17 Stretch                 17    18                       1.23047
   18 Stretch                 17    19                       1.34096
   19 Stretch                 19    20                       1.01777
   20 Stretch                 19    21                       1.47016
   21 Stretch                 21    22                       1.09026
   22 Stretch                 21    23                       1.54747
   23 Stretch                 21    34                       1.54880
   24 Stretch                 23    24                       1.08926
   25 Stretch                 23    25                       1.09109
   26 Stretch                 23    26                       1.54242
   27 Stretch                 26    27                       1.08885
   28 Stretch                 26    28                       1.08972
   29 Stretch                 26    29                       1.53028
   30 Stretch                 29    30                       1.21990
   31 Stretch                 29    31                       1.31397
   32 Stretch                 31    32                       1.01006
   33 Stretch                 31    33                       1.01391
   34 Stretch                 34    35                       1.22825
   35 Stretch                 34    36                       1.32900
   36 Stretch                 36    37                       1.00287
   37 Stretch                 36    38                       1.01579
   38 Bend                     1     2     3               110.03390
   39 Bend                     1     2     4               109.41759
   40 Bend                     1     2     5               108.64597
   41 Bend                     2     5     6               120.20314
   42 Bend                     2     5     7               116.24969
   43 Bend                     3     2     4               110.34304
   44 Bend                     3     2     5               109.36965
   45 Bend                     4     2     5               108.99890
   46 Bend                     5     7     8               119.01537
   47 Bend                     5     7     9               125.23752
   48 Bend                     6     5     7               123.54651
   49 Bend                     7     9    10               109.55608
   50 Bend                     7     9    11               109.17518
   51 Bend                     7     9    17               111.91499
   52 Bend                     8     7     9               115.19731
   53 Bend                     9    11    12               108.43820
   54 Bend                     9    11    13               109.13330
   55 Bend                     9    11    14               112.99651
   56 Bend                     9    17    18               120.46771
   57 Bend                     9    17    19               117.42790
   58 Bend                    10     9    11               108.71014
   59 Bend                    10     9    17               108.06409
   60 Bend                    11     9    17               109.36240
   61 Bend                    11    14    15               118.09245
   62 Bend                    11    14    16               117.33484
   63 Bend                    12    11    13               107.74672
   64 Bend                    12    11    14               109.41195
   65 Bend                    13    11    14               108.98042
   66 Bend                    15    14    16               124.14798
   67 Bend                    17    19    20               115.27950
   68 Bend                    17    19    21               125.73011
   69 Bend                    18    17    19               122.04276
   70 Bend                    19    21    22               105.67167
   71 Bend                    19    21    23               112.16425
   72 Bend                    19    21    34               113.98390
   73 Bend                    20    19    21               117.27017
   74 Bend                    21    23    24               110.42613
   75 Bend                    21    23    25               107.29558
   76 Bend                    21    23    26               115.30122
   77 Bend                    21    34    35               121.07910
   78 Bend                    21    34    36               119.39371
   79 Bend                    22    21    23               106.42069
   80 Bend                    22    21    34               104.36126
   81 Bend                    23    21    34               113.30206
   82 Bend                    23    26    27               107.35208
   83 Bend                    23    26    28               109.03560
   84 Bend                    23    26    29               116.97518
   85 Bend                    24    23    25               106.62100
   86 Bend                    24    23    26               110.43646
   87 Bend                    25    23    26               106.26725
   88 Bend                    26    29    30               120.59737
   89 Bend                    26    29    31               120.69094
   90 Bend                    27    26    28               107.74819
   91 Bend                    27    26    29               106.57308
   92 Bend                    28    26    29               108.78580
   93 Bend                    29    31    32               119.71289
   94 Bend                    29    31    33               115.83067
   95 Bend                    30    29    31               118.71162
   96 Bend                    32    31    33               119.24003
   97 Bend                    34    36    37               118.62425
   98 Bend                    34    36    38               121.38309
   99 Bend                    35    34    36               119.51835
  100 Bend                    37    36    38               119.96073
  101 Torsion                  1     2     5     6         116.00420
  102 Torsion                  1     2     5     7         -63.71248
  103 Torsion                  2     5     7     8           2.16429
  104 Torsion                  2     5     7     9         173.23152
  105 Torsion                  3     2     5     6        -123.87182
  106 Torsion                  3     2     5     7          56.41149
  107 Torsion                  4     2     5     6          -3.15652
  108 Torsion                  4     2     5     7         177.12680
  109 Torsion                  5     7     9    10          37.65256
  110 Torsion                  5     7     9    11         156.59577
  111 Torsion                  5     7     9    17         -82.18872
  112 Torsion                  6     5     7     8        -177.54192
  113 Torsion                  6     5     7     9          -6.47469
  114 Torsion                  7     9    11    12        -173.61258
  115 Torsion                  7     9    11    13         -56.49895
  116 Torsion                  7     9    11    14          64.91535
  117 Torsion                  7     9    17    18         134.22310
  118 Torsion                  7     9    17    19         -42.97968
  119 Torsion                  8     7     9    10        -150.97818
  120 Torsion                  8     7     9    11         -32.03498
  121 Torsion                  8     7     9    17          89.18053
  122 Torsion                  9    11    14    15         -45.12832
  123 Torsion                  9    11    14    16         127.70676
  124 Torsion                  9    17    19    20          -6.12782
  125 Torsion                  9    17    19    21        -170.69235
  126 Torsion                 10     9    11    12         -54.14437
  127 Torsion                 10     9    11    13          62.96927
  128 Torsion                 10     9    11    14        -175.61644
  129 Torsion                 10     9    17    18          13.51127
  130 Torsion                 10     9    17    19        -163.69151
  131 Torsion                 11     9    17    18        -104.66962
  132 Torsion                 11     9    17    19          78.12760
  133 Torsion                 12    11     9    17          63.63227
  134 Torsion                 12    11    14    15        -166.04903
  135 Torsion                 12    11    14    16           6.78605
  136 Torsion                 13    11     9    17        -179.25409
  137 Torsion                 13    11    14    15          76.37229
  138 Torsion                 13    11    14    16        -110.79263
  139 Torsion                 14    11     9    17         -57.83980
  140 Torsion                 17    19    21    22         173.40746
  141 Torsion                 17    19    21    23         -71.04140
  142 Torsion                 17    19    21    34          59.40524
  143 Torsion                 18    17    19    20         176.71650
  144 Torsion                 18    17    19    21          12.15198
  145 Torsion                 19    21    23    24          66.79979
  146 Torsion                 19    21    23    25        -177.37356
  147 Torsion                 19    21    23    26         -59.22820
  148 Torsion                 19    21    34    35        -154.14900
  149 Torsion                 19    21    34    36          26.93737
  150 Torsion                 20    19    21    22           9.11684
  151 Torsion                 20    19    21    23         124.66798
  152 Torsion                 20    19    21    34        -104.88538
  153 Torsion                 21    23    26    27        -162.06950
  154 Torsion                 21    23    26    28         -45.60457
  155 Torsion                 21    23    26    29          78.30312
  156 Torsion                 21    34    36    37        -179.41334
  157 Torsion                 21    34    36    38           2.64350
  158 Torsion                 22    21    23    24        -178.10433
  159 Torsion                 22    21    23    25         -62.27768
  160 Torsion                 22    21    23    26          55.86768
  161 Torsion                 22    21    34    35          91.07346
  162 Torsion                 22    21    34    36         -87.84017
  163 Torsion                 23    21    34    35         -24.26722
  164 Torsion                 23    21    34    36         156.81915
  165 Torsion                 23    26    29    30        -154.66808
  166 Torsion                 23    26    29    31          25.23810
  167 Torsion                 24    23    21    34         -63.99487
  168 Torsion                 24    23    26    27          71.90780
  169 Torsion                 24    23    26    28        -171.62727
  170 Torsion                 24    23    26    29         -47.71957
  171 Torsion                 25    23    21    34          51.83178
  172 Torsion                 25    23    26    27         -43.35135
  173 Torsion                 25    23    26    28          73.11357
  174 Torsion                 25    23    26    29        -162.97873
  175 Torsion                 26    23    21    34         169.97715
  176 Torsion                 26    29    31    32         -13.10034
  177 Torsion                 26    29    31    33        -167.40409
  178 Torsion                 27    26    29    30          85.29023
  179 Torsion                 27    26    29    31         -94.80359
  180 Torsion                 28    26    29    30         -30.63337
  181 Torsion                 28    26    29    31         149.27281
  182 Torsion                 30    29    31    32         166.80758
  183 Torsion                 30    29    31    33          12.50383
  184 Torsion                 35    34    36    37           1.65587
  185 Torsion                 35    34    36    38        -176.28729


            XYZ format geometry
            -------------------
    38
 geometry
 H                    -0.57996871     3.22017682    -1.82817496
 C                    -1.17612062     3.66749636    -1.03433926
 H                    -2.20733119     3.78299558    -1.36244394
 H                    -0.75443616     4.63312528    -0.76594958
 C                    -1.13303690     2.76129992     0.16984545
 O                    -0.61790064     3.14683721     1.21412589
 N                    -1.67022267     1.55582283     0.01756475
 H                    -2.04535481     1.29425336    -0.89038586
 C                    -1.61228916     0.47149003     1.00596502
 H                    -1.70690867     0.88701947     2.00955927
 C                    -2.78378345    -0.50054743     0.76062180
 H                    -2.79728975    -1.23552060     1.56745884
 H                    -3.72324408     0.05414142     0.80001734
 C                    -2.68838896    -1.22716190    -0.59094445
 O                    -2.39514501    -0.55146210    -1.60478998
 O                    -2.77392618    -2.47185764    -0.57954718
 C                    -0.28108548    -0.30342624     0.93283125
 O                     0.33789226    -0.57862203     1.96006045
 N                     0.19103698    -0.60662413    -0.28509955
 H                    -0.42804145    -0.37913578    -1.06023950
 C                     1.32663857    -1.49620564    -0.56868688
 H                     1.35183672    -1.60501940    -1.65321426
 C                     2.67914550    -0.86447439    -0.16088102
 H                     2.73740497    -0.75669348     0.92146509
 H                     3.46428191    -1.56586808    -0.44738529
 C                     3.01867187     0.47088299    -0.85413676
 H                     4.08888708     0.63428690    -0.73775993
 H                     2.81031898     0.38105568    -1.91997123
 C                     2.32488935     1.72611878    -0.32046370
 O                     2.15874051     2.69715930    -1.03992661
 N                     1.89505828     1.77872486     0.92009861
 H                     1.84001613     0.93146786     1.46721829
 H                     1.27791306     2.55214679     1.14138868
 C                     1.14156325    -2.94084600    -0.04185261
 O                     2.11012397    -3.64602997     0.22869443
 N                    -0.08544966    -3.43159174     0.09902298
 H                    -0.19220727    -4.36514576     0.44950508
 H                    -0.90434034    -2.89356611    -0.16888461

 ==============================================================================
                                internuclear distances
 ------------------------------------------------------------------------------
       center one      |      center two      | atomic units |  angstroms
 ------------------------------------------------------------------------------
    2 C                |   1 H                |     2.05769  |     1.08888
    3 H                |   2 C                |     2.05658  |     1.08830
    4 H                |   2 C                |     2.05476  |     1.08733
    5 C                |   2 C                |     2.84911  |     1.50768
    6 O                |   5 C                |     2.31792  |     1.22659
    7 N                |   5 C                |     2.51052  |     1.32851
    8 H                |   7 N                |     1.92113  |     1.01662
    9 C                |   7 N                |     2.77479  |     1.46836
   10 H                |   9 C                |     2.06042  |     1.09033
   11 C                |   9 C                |     2.91376  |     1.54190
   12 H                |  11 C                |     2.06262  |     1.09149
   13 H                |  11 C                |     2.06302  |     1.09170
   14 C                |  11 C                |     2.90539  |     1.53747
   15 O                |  14 C                |     2.36816  |     1.25317
   16 O                |  14 C                |     2.35778  |     1.24768
   17 C                |   9 C                |     2.91407  |     1.54206
   18 O                |  17 C                |     2.32526  |     1.23047
   19 N                |  17 C                |     2.53405  |     1.34096
   20 H                |  19 N                |     1.92330  |     1.01777
   21 C                |  19 N                |     2.77820  |     1.47016
   22 H                |  21 C                |     2.06030  |     1.09026
   23 C                |  21 C                |     2.92430  |     1.54747
   24 H                |  23 C                |     2.05840  |     1.08926
   25 H                |  23 C                |     2.06186  |     1.09109
   26 C                |  23 C                |     2.91475  |     1.54242
   27 H                |  26 C                |     2.05764  |     1.08885
   28 H                |  26 C                |     2.05927  |     1.08972
   29 C                |  26 C                |     2.89181  |     1.53028
   30 O                |  29 C                |     2.30527  |     1.21990
   31 N                |  29 C                |     2.48304  |     1.31397
   32 H                |  31 N                |     1.90873  |     1.01006
   33 H                |  31 N                |     1.91602  |     1.01391
   34 C                |  21 C                |     2.92681  |     1.54880
   35 O                |  34 C                |     2.32105  |     1.22825
   36 N                |  34 C                |     2.51144  |     1.32900
   37 H                |  36 N                |     1.89516  |     1.00287
   38 H                |  36 N                |     1.91956  |     1.01579
 ------------------------------------------------------------------------------
                         number of included internuclear distances:         37
 ==============================================================================



 ==============================================================================
                                 internuclear angles
 ------------------------------------------------------------------------------
        center 1       |       center 2       |       center 3       |  degrees
 ------------------------------------------------------------------------------
    1 H                |   2 C                |   3 H                |   110.03
    1 H                |   2 C                |   4 H                |   109.42
    1 H                |   2 C                |   5 C                |   108.65
    3 H                |   2 C                |   4 H                |   110.34
    3 H                |   2 C                |   5 C                |   109.37
    4 H                |   2 C                |   5 C                |   109.00
    2 C                |   5 C                |   6 O                |   120.20
    2 C                |   5 C                |   7 N                |   116.25
    6 O                |   5 C                |   7 N                |   123.55
    5 C                |   7 N                |   8 H                |   119.02
    5 C                |   7 N                |   9 C                |   125.24
    8 H                |   7 N                |   9 C                |   115.20
    7 N                |   9 C                |  10 H                |   109.56
    7 N                |   9 C                |  11 C                |   109.18
    7 N                |   9 C                |  17 C                |   111.91
   10 H                |   9 C                |  11 C                |   108.71
   10 H                |   9 C                |  17 C                |   108.06
   11 C                |   9 C                |  17 C                |   109.36
    9 C                |  11 C                |  12 H                |   108.44
    9 C                |  11 C                |  13 H                |   109.13
    9 C                |  11 C                |  14 C                |   113.00
   12 H                |  11 C                |  13 H                |   107.75
   12 H                |  11 C                |  14 C                |   109.41
   13 H                |  11 C                |  14 C                |   108.98
   11 C                |  14 C                |  15 O                |   118.09
   11 C                |  14 C                |  16 O                |   117.33
   15 O                |  14 C                |  16 O                |   124.15
    9 C                |  17 C                |  18 O                |   120.47
    9 C                |  17 C                |  19 N                |   117.43
   18 O                |  17 C                |  19 N                |   122.04
   17 C                |  19 N                |  20 H                |   115.28
   17 C                |  19 N                |  21 C                |   125.73
   20 H                |  19 N                |  21 C                |   117.27
   19 N                |  21 C                |  22 H                |   105.67
   19 N                |  21 C                |  23 C                |   112.16
   19 N                |  21 C                |  34 C                |   113.98
   22 H                |  21 C                |  23 C                |   106.42
   22 H                |  21 C                |  34 C                |   104.36
   23 C                |  21 C                |  34 C                |   113.30
   21 C                |  23 C                |  24 H                |   110.43
   21 C                |  23 C                |  25 H                |   107.30
   21 C                |  23 C                |  26 C                |   115.30
   24 H                |  23 C                |  25 H                |   106.62
   24 H                |  23 C                |  26 C                |   110.44
   25 H                |  23 C                |  26 C                |   106.27
   23 C                |  26 C                |  27 H                |   107.35
   23 C                |  26 C                |  28 H                |   109.04
   23 C                |  26 C                |  29 C                |   116.98
   27 H                |  26 C                |  28 H                |   107.75
   27 H                |  26 C                |  29 C                |   106.57
   28 H                |  26 C                |  29 C                |   108.79
   26 C                |  29 C                |  30 O                |   120.60
   26 C                |  29 C                |  31 N                |   120.69
   30 O                |  29 C                |  31 N                |   118.71
   29 C                |  31 N                |  32 H                |   119.71
   29 C                |  31 N                |  33 H                |   115.83
   32 H                |  31 N                |  33 H                |   119.24
   21 C                |  34 C                |  35 O                |   121.08
   21 C                |  34 C                |  36 N                |   119.39
   35 O                |  34 C                |  36 N                |   119.52
   34 C                |  36 N                |  37 H                |   118.62
   34 C                |  36 N                |  38 H                |   121.38
   37 H                |  36 N                |  38 H                |   119.96
 ------------------------------------------------------------------------------
                            number of included internuclear angles:         63
 ==============================================================================



  library name resolved from: environment
  library file name is: </opt/rit/el9/20230413/app/linux-rhel9-x86_64_v3/gcc-11.2.1/nwchem-7.2.0-oxtctbuhfuzyfaoziquq6bki22grib3g/share/nwchem/libraries/>
  


 Summary of "ao basis" -> "" (cartesian)
 ------------------------------------------------------------------------------
       Tag                 Description            Shells   Functions and Types
 ---------------- ------------------------------  ------  ---------------------
 *                        aug-cc-pvdz                 on all atoms 


                      Basis "ao basis" -> "ao basis" (cartesian)
                      -----
  H (Hydrogen)
  ------------
            Exponent  Coefficients 
       -------------- ---------------------------------------------------------
  1 S  1.30100000E+01  0.019685
  1 S  1.96200000E+00  0.137977
  1 S  4.44600000E-01  0.478148

  2 S  1.22000000E-01  1.000000

  3 S  2.97400000E-02  1.000000

  4 P  7.27000000E-01  1.000000

  5 P  1.41000000E-01  1.000000

  C (Carbon)
  ----------
            Exponent  Coefficients 
       -------------- ---------------------------------------------------------
  1 S  6.66500000E+03  0.000692
  1 S  1.00000000E+03  0.005329
  1 S  2.28000000E+02  0.027077
  1 S  6.47100000E+01  0.101718
  1 S  2.10600000E+01  0.274740
  1 S  7.49500000E+00  0.448564
  1 S  2.79700000E+00  0.285074
  1 S  5.21500000E-01  0.015204

  2 S  6.66500000E+03 -0.000146
  2 S  1.00000000E+03 -0.001154
  2 S  2.28000000E+02 -0.005725
  2 S  6.47100000E+01 -0.023312
  2 S  2.10600000E+01 -0.063955
  2 S  7.49500000E+00 -0.149981
  2 S  2.79700000E+00 -0.127262
  2 S  5.21500000E-01  0.544529

  3 S  1.59600000E-01  1.000000

  4 S  4.69000000E-02  1.000000

  5 P  9.43900000E+00  0.038109
  5 P  2.00200000E+00  0.209480
  5 P  5.45600000E-01  0.508557

  6 P  1.51700000E-01  1.000000

  7 P  4.04100000E-02  1.000000

  8 D  5.50000000E-01  1.000000

  9 D  1.51000000E-01  1.000000

  O (Oxygen)
  ----------
            Exponent  Coefficients 
       -------------- ---------------------------------------------------------
  1 S  1.17200000E+04  0.000710
  1 S  1.75900000E+03  0.005470
  1 S  4.00800000E+02  0.027837
  1 S  1.13700000E+02  0.104800
  1 S  3.70300000E+01  0.283062
  1 S  1.32700000E+01  0.448719
  1 S  5.02500000E+00  0.270952
  1 S  1.01300000E+00  0.015458

  2 S  1.17200000E+04 -0.000160
  2 S  1.75900000E+03 -0.001263
  2 S  4.00800000E+02 -0.006267
  2 S  1.13700000E+02 -0.025716
  2 S  3.70300000E+01 -0.070924
  2 S  1.32700000E+01 -0.165411
  2 S  5.02500000E+00 -0.116955
  2 S  1.01300000E+00  0.557368

  3 S  3.02300000E-01  1.000000

  4 S  7.89600000E-02  1.000000

  5 P  1.77000000E+01  0.043018
  5 P  3.85400000E+00  0.228913
  5 P  1.04600000E+00  0.508728

  6 P  2.75300000E-01  1.000000

  7 P  6.85600000E-02  1.000000

  8 D  1.18500000E+00  1.000000

  9 D  3.32000000E-01  1.000000

  N (Nitrogen)
  ------------
            Exponent  Coefficients 
       -------------- ---------------------------------------------------------
  1 S  9.04600000E+03  0.000700
  1 S  1.35700000E+03  0.005389
  1 S  3.09300000E+02  0.027406
  1 S  8.77300000E+01  0.103207
  1 S  2.85600000E+01  0.278723
  1 S  1.02100000E+01  0.448540
  1 S  3.83800000E+00  0.278238
  1 S  7.46600000E-01  0.015440

  2 S  9.04600000E+03 -0.000153
  2 S  1.35700000E+03 -0.001208
  2 S  3.09300000E+02 -0.005992
  2 S  8.77300000E+01 -0.024544
  2 S  2.85600000E+01 -0.067459
  2 S  1.02100000E+01 -0.158078
  2 S  3.83800000E+00 -0.121831
  2 S  7.46600000E-01  0.549003

  3 S  2.24800000E-01  1.000000

  4 S  6.12400000E-02  1.000000

  5 P  1.35500000E+01  0.039919
  5 P  2.91700000E+00  0.217169
  5 P  7.97300000E-01  0.510319

  6 P  2.18500000E-01  1.000000

  7 P  5.61100000E-02  1.000000

  8 D  8.17000000E-01  1.000000

  9 D  2.30000000E-01  1.000000



 Summary of "ao basis" -> "ao basis" (cartesian)
 ------------------------------------------------------------------------------
       Tag                 Description            Shells   Functions and Types
 ---------------- ------------------------------  ------  ---------------------
 H                        aug-cc-pvdz                5        9   3s2p
 C                        aug-cc-pvdz                9       25   4s3p2d
 O                        aug-cc-pvdz                9       25   4s3p2d
 N                        aug-cc-pvdz                9       25   4s3p2d


 ------------------------------------------------------------------------
 scf: no. of closed-shell electrons is not even!                   0
 ------------------------------------------------------------------------
 ------------------------------------------------------------------------
  current input line : 
    53: task scf energy
 ------------------------------------------------------------------------
 ------------------------------------------------------------------------
 There is an error in the input file
 scf: no. of closed-shell electrons is not even!                   0
 ------------------------------------------------------------------------
 ------------------------------------------------------------------------
  current input line : 
     0: 
 ------------------------------------------------------------------------
 ------------------------------------------------------------------------
 There is an error in the input file
 ------------------------------------------------------------------------
 For more information see the NWChem manual at https://nwchemgit.github.io


 For further details see manual section:                                                                                                                                                                                                                                                                
 scf: no. of closed-shell electrons is not even!                   0
 ------------------------------------------------------------------------
 ------------------------------------------------------------------------
  current input line : 
     0: 
 ------------------------------------------------------------------------
 ------------------------------------------------------------------------
 There is an error in the input file
 ------------------------------------------------------------------------
 For more information see the NWChem manual at https://nwchemgit.github.io


 For further details see manual section:                                                                                                                                                                                                                                                                
 scf: no. of closed-shell electrons is not even!                   0
 scf: no. of closed-shell electrons is not even!                   0
 ------------------------------------------------------------------------
 ------------------------------------------------------------------------
  current input line : 
     0: 
 ------------------------------------------------------------------------
 ------------------------------------------------------------------------
 There is an error in the input file
 ------------------------------------------------------------------------
 For more information see the NWChem manual at https://nwchemgit.github.io


 For further details see manual section:                                                                                                                                                                                                                                                                
 scf: no. of closed-shell electrons is not even!                   0
 ------------------------------------------------------------------------
 ------------------------------------------------------------------------
  current input line : 
     0: 
 ------------------------------------------------------------------------
 ------------------------------------------------------------------------
 There is an error in the input file
 ------------------------------------------------------------------------
 For more information see the NWChem manual at https://nwchemgit.github.io


 For further details see manual section:                                                                                                                                                                                                                                                                
 scf: no. of closed-shell electrons is not even!                   0
 ------------------------------------------------------------------------
 ------------------------------------------------------------------------
  current input line : 
     0: 
 ------------------------------------------------------------------------
 ------------------------------------------------------------------------
 There is an error in the input file
 ------------------------------------------------------------------------
 For more information see the NWChem manual at https://nwchemgit.github.io


 For further details see manual section:                                                                                                                                                                                                                                                                
 scf: no. of closed-shell electrons is not even!                   0
 ------------------------------------------------------------------------
 ------------------------------------------------------------------------
  current input line : 
     0: 
 ------------------------------------------------------------------------
 ------------------------------------------------------------------------
 There is an error in the input file
 ------------------------------------------------------------------------
 For more information see the NWChem manual at https://nwchemgit.github.io


 For further details see manual section:                                                                                                                                                                                                                                                                
 ------------------------------------------------------------------------
 For more information see the NWChem manual at https://nwchemgit.github.io


 For further details see manual section:                                                                                                                                                                                                                                                                
0:scf: no. of closed-shell electrons is not even!:Received an Error in Communication
1:scf: no. of closed-shell electrons is not even!:Received an Error in Communication
2:scf: no. of closed-shell electrons is not even!:Received an Error in Communication
4:scf: no. of closed-shell electrons is not even!:Received an Error in Communication
5:scf: no. of closed-shell electrons is not even!:Received an Error in Communication
6:scf: no. of closed-shell electrons is not even!:Received an Error in Communication
7:scf: no. of closed-shell electrons is not even!:Received an Error in Communication
 ------------------------------------------------------------------------
 ------------------------------------------------------------------------
  current input line : 
     0: 
 ------------------------------------------------------------------------
 ------------------------------------------------------------------------
 There is an error in the input file
 ------------------------------------------------------------------------
 For more information see the NWChem manual at https://nwchemgit.github.io


 For further details see manual section:                                                                                                                                                                                                                                                                
3:scf: no. of closed-shell electrons is not even!:Received an Error in Communication
--------------------------------------------------------------------------
MPI_ABORT was invoked on rank 1 in communicator MPI COMMUNICATOR 3 DUP FROM 0
with errorcode -1.

NOTE: invoking MPI_ABORT causes Open MPI to kill all MPI processes.
You may or may not see output from other processes, depending on
exactly when Open MPI kills them.
--------------------------------------------------------------------------
--------------------------------------------------------------------------
MPI_ABORT was invoked on rank 5 in communicator MPI COMMUNICATOR 3 DUP FROM 0
with errorcode -1.

NOTE: invoking MPI_ABORT causes Open MPI to kill all MPI processes.
You may or may not see output from other processes, depending on
exactly when Open MPI kills them.
--------------------------------------------------------------------------
--------------------------------------------------------------------------
MPI_ABORT was invoked on rank 7 in communicator MPI COMMUNICATOR 3 DUP FROM 0
with errorcode -1.

NOTE: invoking MPI_ABORT causes Open MPI to kill all MPI processes.
You may or may not see output from other processes, depending on
exactly when Open MPI kills them.
--------------------------------------------------------------------------
--------------------------------------------------------------------------
MPI_ABORT was invoked on rank 0 in communicator MPI COMMUNICATOR 3 DUP FROM 0
with errorcode -1.

NOTE: invoking MPI_ABORT causes Open MPI to kill all MPI processes.
You may or may not see output from other processes, depending on
exactly when Open MPI kills them.
--------------------------------------------------------------------------
--------------------------------------------------------------------------
MPI_ABORT was invoked on rank 2 in communicator MPI COMMUNICATOR 3 DUP FROM 0
with errorcode -1.

NOTE: invoking MPI_ABORT causes Open MPI to kill all MPI processes.
You may or may not see output from other processes, depending on
exactly when Open MPI kills them.
--------------------------------------------------------------------------
--------------------------------------------------------------------------
MPI_ABORT was invoked on rank 3 in communicator MPI COMMUNICATOR 3 DUP FROM 0
with errorcode -1.

NOTE: invoking MPI_ABORT causes Open MPI to kill all MPI processes.
You may or may not see output from other processes, depending on
exactly when Open MPI kills them.
--------------------------------------------------------------------------
--------------------------------------------------------------------------
MPI_ABORT was invoked on rank 4 in communicator MPI COMMUNICATOR 3 DUP FROM 0
with errorcode -1.

NOTE: invoking MPI_ABORT causes Open MPI to kill all MPI processes.
You may or may not see output from other processes, depending on
exactly when Open MPI kills them.
--------------------------------------------------------------------------
--------------------------------------------------------------------------
MPI_ABORT was invoked on rank 6 in communicator MPI COMMUNICATOR 3 DUP FROM 0
with errorcode -1.

NOTE: invoking MPI_ABORT causes Open MPI to kill all MPI processes.
You may or may not see output from other processes, depending on
exactly when Open MPI kills them.
--------------------------------------------------------------------------
slurmstepd: error: *** STEP 6619389.108 ON nova21-speedy-11 CANCELLED AT 2025-07-11T03:00:06 ***
srun: Job step aborted: Waiting up to 32 seconds for job step to finish.
slurmstepd: error: --task-epilog failed status=9
srun: error: nova21-speedy-11: tasks 0-7: Killed
