export TMOUT=5400
export TMPDIR=/tmp
export PTMPDIR=/tmp/ptmp
 argument  1 = inputs/ASP_ALA_4.nw



============================== echo of input deck ==============================
start ASP_ALA_4
geometry
H          1.32900        1.78700        8.86600
C          1.69300        2.29500        7.97500
H          0.85700        2.57000        7.33500
H          2.37800        1.64900        7.43000
C          2.42500        3.54800        8.39000
O          2.53900        3.82900        9.57500
N          2.91900        4.28500        7.40200
H          2.75200        3.99600        6.44200
C          3.56700        5.59500        7.54800
H          4.18600        5.60300        8.44600
C          4.46000        5.83700        6.31500
H          5.01700        6.76400        6.46600
H          5.18300        5.02400        6.23100
C          3.65600        5.93000        5.00600
O          2.78800        5.05200        4.78200
O          3.83000        6.94000        4.29500
C          2.55100        6.75100        7.65300
O          2.77700        7.70900        8.38900
N          1.44900        6.65900        6.89600
H          1.43100        5.87500        6.25300
C          0.44000        7.70500        6.70200
H         -0.22700        7.33200        5.92600
C         -0.41000        7.85100        7.97500
H         -0.78500        6.87500        8.28500
H          0.19500        8.27600        8.77700
H         -1.25400        8.51300        7.78000
C          0.98400        9.04400        6.13800
O          0.37000       10.09600        6.30900
N          2.10700        9.04800        5.42900
H          2.45200        9.92300        5.07900
H          2.60200        8.18700        5.22200
end

basis
 * library aug-cc-pvdz
end

echo

scf
 direct
end

task scf energy
================================================================================


                                         
                                         


             Northwest Computational Chemistry Package (NWChem) 7.2.0
             --------------------------------------------------------


                    Environmental Molecular Sciences Laboratory
                       Pacific Northwest National Laboratory
                                Richland, WA 99352

                              Copyright (c) 1994-2022
                       Pacific Northwest National Laboratory
                            Battelle Memorial Institute

             NWChem is an open-source computational chemistry package
                        distributed under the terms of the
                      Educational Community License (ECL) 2.0
             A copy of the license is included with this distribution
                              in the LICENSE.TXT file

                                  ACKNOWLEDGMENT
                                  --------------

            This software and its documentation were developed at the
            EMSL at Pacific Northwest National Laboratory, a multiprogram
            national laboratory, operated for the U.S. Department of Energy
            by Battelle under Contract Number DE-AC05-76RL01830. Support
            for this work was provided by the Department of Energy Office
            of Biological and Environmental Research, Office of Basic
            Energy Sciences, and the Office of Advanced Scientific Computing.


           Job information
           ---------------

    hostname        = nova21-speedy-11
    program         = /opt/rit/el9/20230413/app/linux-rhel9-x86_64_v3/gcc-11.2.1/nwchem-7.2.0-oxtctbuhfuzyfaoziquq6bki22grib3g/bin/nwchem
    date            = Thu Jul 10 11:10:15 2025

    compiled        = Wed_May_17_23:46:39_2023
    source          = /tmp/root/spack-stage/spack-stage-nwchem-7.2.0-oxtctbuhfuzyfaoziquq6bki22grib3g/spack-src
    nwchem branch   = 7.2.0
    nwchem revision = d0d141fd
    ga revision     = 5.8.0
    use scalapack   = T
    input           = inputs/ASP_ALA_4.nw
    prefix          = ASP_ALA_4.
    data base       = ./ASP_ALA_4.db
    status          = startup
    nproc           =        8
    time left       =     -1s



           Memory information
           ------------------

    heap     =   26214398 doubles =    200.0 Mbytes
    stack    =   26214395 doubles =    200.0 Mbytes
    global   =   52428800 doubles =    400.0 Mbytes (distinct from heap & stack)
    total    =  104857593 doubles =    800.0 Mbytes
    verify   = yes
    hardfail = no 


           Directory information
           ---------------------

  0 permanent = .
  0 scratch   = .




                                NWChem Input Module
                                -------------------



 Scaling coordinates for geometry "geometry" by  1.889725989
 (inverse scale =  0.529177249)

 C1  symmetry detected

          ------
          auto-z
          ------
  no constraints, skipping    0.0000000000000000     
  no constraints, skipping    0.0000000000000000     


                             Geometry "geometry" -> ""
                             -------------------------

 Output coordinates in angstroms (scale by  1.889725989 to convert to a.u.)

  No.       Tag          Charge          X              Y              Z
 ---- ---------------- ---------- -------------- -------------- --------------
    1 H                    1.0000    -1.81014753    -4.53984058    -1.30061147
    2 C                    6.0000    -0.93001397    -3.90180091    -1.35268174
    3 H                    1.0000    -1.00489946    -3.23250151    -2.20740478
    4 H                    1.0000    -0.03199791    -4.50997875    -1.43784551
    5 C                    6.0000    -0.84703490    -3.07760286    -0.09098842
    6 O                    8.0000    -1.68860245    -3.21114367     0.78657235
    7 N                    7.0000     0.17681313    -2.23540298    -0.01493861
    8 H                    1.0000     0.81392709    -2.16338335    -0.80355067
    9 C                    6.0000     0.40558665    -1.25490230     1.05445425
   10 H                    1.0000     0.12643514    -1.68581642     2.01675174
   11 C                    6.0000     1.90497247    -0.89753505     1.07525801
   12 H                    1.0000     2.09465147    -0.24449248     1.92962109
   13 H                    1.0000     2.48863299    -1.80865836     1.21649793
   14 C                    6.0000     2.36922422    -0.19995057    -0.21563013
   15 O                    8.0000     2.02987454    -0.70291290    -1.31397192
   16 O                    8.0000     2.95837003     0.89323494    -0.09837116
   17 C                    6.0000    -0.40556140     0.04179202     0.85385588
   18 O                    8.0000    -0.87613849     0.63386723     1.82263869
   19 N                    7.0000    -0.54170888     0.48208878    -0.40452388
   20 H                    1.0000    -0.01735602    -0.03469309    -1.10196175
   21 C                    6.0000    -1.11485900     1.76716826    -0.81671640
   22 H                    1.0000    -0.93667428     1.84004705    -1.88869256
   23 C                    6.0000    -2.64073761     1.74098264    -0.62869042
   24 H                    1.0000    -3.05859107     0.85443264    -1.10694620
   25 H                    1.0000    -2.88211949     1.72432199     0.43494073
   26 H                    1.0000    -3.08213233     2.63111750    -1.07750622
   27 C                    6.0000    -0.41729370     3.01770478    -0.21962843
   28 O                    8.0000    -1.01095629     4.09183629    -0.13748686
   29 N                    7.0000     0.84907722     2.93675892     0.17226248
   30 H                    1.0000     1.28403963     3.75111388     0.56568808
   31 H                    1.0000     1.38088633     2.08002722     0.06097520

      Atomic Mass 
      ----------- 

      H                  1.007825
      C                 12.000000
      O                 15.994910
      N                 14.003070


 Effective nuclear repulsion energy (a.u.)    1317.9277692159

            Nuclear Dipole moment (a.u.) 
            ----------------------------
        X                 Y               Z
 ---------------- ---------------- ----------------
    -0.0000000000    -0.0000000000     0.0000000000



                                Z-matrix (autoz)
                                -------- 

 Units are Angstrom for bonds and degrees for angles

      Type          Name      I     J     K     L     M      Value
      ----------- --------  ----- ----- ----- ----- ----- ----------
    1 Stretch                  1     2                       1.08832
    2 Stretch                  2     3                       1.08817
    3 Stretch                  2     4                       1.08792
    4 Stretch                  2     5                       1.50932
    5 Stretch                  5     6                       1.22319
    6 Stretch                  5     7                       1.32791
    7 Stretch                  7     8                       1.01637
    8 Stretch                  7     9                       1.46878
    9 Stretch                  9    10                       1.09070
   10 Stretch                  9    11                       1.54153
   11 Stretch                  9    17                       1.54260
   12 Stretch                 11    12                       1.09196
   13 Stretch                 11    13                       1.09122
   14 Stretch                 11    14                       1.53901
   15 Stretch                 14    15                       1.25478
   16 Stretch                 14    16                       1.24736
   17 Stretch                 17    18                       1.22904
   18 Stretch                 17    19                       1.34012
   19 Stretch                 19    20                       1.01411
   20 Stretch                 19    21                       1.46623
   21 Stretch                 21    22                       1.08913
   22 Stretch                 21    23                       1.53764
   23 Stretch                 21    27                       1.55144
   24 Stretch                 23    24                       1.09055
   25 Stretch                 23    25                       1.09080
   26 Stretch                 23    26                       1.09023
   27 Stretch                 27    28                       1.23002
   28 Stretch                 27    29                       1.32809
   29 Stretch                 29    30                       1.00357
   30 Stretch                 29    31                       1.01449
   31 Bend                     1     2     3               110.03028
   32 Bend                     1     2     4               110.09344
   33 Bend                     1     2     5               108.94172
   34 Bend                     2     5     6               120.15152
   35 Bend                     2     5     7               115.88696
   36 Bend                     3     2     4               109.82558
   37 Bend                     3     2     5               108.93589
   38 Bend                     4     2     5               108.98536
   39 Bend                     5     7     8               118.93524
   40 Bend                     5     7     9               125.81541
   41 Bend                     6     5     7               123.96087
   42 Bend                     7     9    10               109.80157
   43 Bend                     7     9    11               108.42626
   44 Bend                     7     9    17               112.61663
   45 Bend                     8     7     9               114.83368
   46 Bend                     9    11    12               108.55160
   47 Bend                     9    11    13               109.17352
   48 Bend                     9    11    14               112.77854
   49 Bend                     9    17    18               120.24996
   50 Bend                     9    17    19               116.85313
   51 Bend                    10     9    11               109.18532
   52 Bend                    10     9    17               108.19489
   53 Bend                    11     9    17               108.56260
   54 Bend                    11    14    15               118.09502
   55 Bend                    11    14    16               117.44343
   56 Bend                    12    11    13               107.76808
   57 Bend                    12    11    14               109.43857
   58 Bend                    13    11    14               109.00681
   59 Bend                    15    14    16               124.14672
   60 Bend                    17    19    20               115.20310
   61 Bend                    17    19    21               126.27409
   62 Bend                    18    17    19               122.88760
   63 Bend                    19    21    22               105.74714
   64 Bend                    19    21    23               109.79206
   65 Bend                    19    21    27               114.99326
   66 Bend                    20    19    21               117.09126
   67 Bend                    21    23    24               109.90397
   68 Bend                    21    23    25               109.82149
   69 Bend                    21    23    26               109.72596
   70 Bend                    21    27    28               120.83639
   71 Bend                    21    27    29               119.54892
   72 Bend                    22    21    23               106.48999
   73 Bend                    22    21    27               104.55471
   74 Bend                    23    21    27               114.38405
   75 Bend                    24    23    25               109.29401
   76 Bend                    24    23    26               109.15179
   77 Bend                    25    23    26               108.92281
   78 Bend                    27    29    30               118.65240
   79 Bend                    27    29    31               121.26198
   80 Bend                    28    27    29               119.58638
   81 Bend                    30    29    31               120.07109
   82 Torsion                  1     2     5     6           0.88584
   83 Torsion                  1     2     5     7        -179.39563
   84 Torsion                  2     5     7     8           2.35406
   85 Torsion                  2     5     7     9         174.54999
   86 Torsion                  3     2     5     6         120.92457
   87 Torsion                  3     2     5     7         -59.35690
   88 Torsion                  4     2     5     6        -119.25902
   89 Torsion                  4     2     5     7          60.45951
   90 Torsion                  5     7     9    10          38.67880
   91 Torsion                  5     7     9    11         157.89513
   92 Torsion                  5     7     9    17         -81.95301
   93 Torsion                  6     5     7     8        -177.93939
   94 Torsion                  6     5     7     9          -5.74345
   95 Torsion                  7     9    11    12        -174.56022
   96 Torsion                  7     9    11    13         -57.33503
   97 Torsion                  7     9    11    14          63.99647
   98 Torsion                  7     9    17    18         143.63626
   99 Torsion                  7     9    17    19         -37.44213
  100 Torsion                  8     7     9    10        -148.84532
  101 Torsion                  8     7     9    11         -29.62899
  102 Torsion                  8     7     9    17          90.52287
  103 Torsion                  9    11    14    15         -47.44082
  104 Torsion                  9    11    14    16         126.38648
  105 Torsion                  9    17    19    20          -5.76356
  106 Torsion                  9    17    19    21        -171.62410
  107 Torsion                 10     9    11    12         -54.95689
  108 Torsion                 10     9    11    13          62.26830
  109 Torsion                 10     9    11    14        -176.40021
  110 Torsion                 10     9    17    18          22.08707
  111 Torsion                 10     9    17    19        -158.99132
  112 Torsion                 11     9    17    18         -96.29052
  113 Torsion                 11     9    17    19          82.63110
  114 Torsion                 12    11     9    17          62.79222
  115 Torsion                 12    11    14    15        -168.37980
  116 Torsion                 12    11    14    16           5.44749
  117 Torsion                 13    11     9    17        -179.98259
  118 Torsion                 13    11    14    15          73.98528
  119 Torsion                 13    11    14    16        -112.18742
  120 Torsion                 14    11     9    17         -58.65109
  121 Torsion                 17    19    21    22         172.34094
  122 Torsion                 17    19    21    23         -73.14574
  123 Torsion                 17    19    21    27          57.53618
  124 Torsion                 18    17    19    20         173.12710
  125 Torsion                 18    17    19    21           7.26656
  126 Torsion                 19    21    23    24         -51.17127
  127 Torsion                 19    21    23    25          69.09675
  128 Torsion                 19    21    23    26        -171.20383
  129 Torsion                 19    21    27    28        -157.44279
  130 Torsion                 19    21    27    29          24.50069
  131 Torsion                 20    19    21    22           6.71596
  132 Torsion                 20    19    21    23         121.22928
  133 Torsion                 20    19    21    27        -108.08880
  134 Torsion                 21    27    29    30        -179.34913
  135 Torsion                 21    27    29    31           2.03703
  136 Torsion                 22    21    23    24          62.86604
  137 Torsion                 22    21    23    25        -176.86593
  138 Torsion                 22    21    23    26         -57.16651
  139 Torsion                 22    21    27    28          87.06469
  140 Torsion                 22    21    27    29         -90.99183
  141 Torsion                 23    21    27    28         -29.01811
  142 Torsion                 23    21    27    29         152.92538
  143 Torsion                 24    23    21    27         177.82284
  144 Torsion                 25    23    21    27         -61.90913
  145 Torsion                 26    23    21    27          57.79029
  146 Torsion                 28    27    29    30           2.56981
  147 Torsion                 28    27    29    31        -176.04403


            XYZ format geometry
            -------------------
    31
 geometry
 H                    -1.81014753    -4.53984058    -1.30061147
 C                    -0.93001397    -3.90180091    -1.35268174
 H                    -1.00489946    -3.23250151    -2.20740478
 H                    -0.03199791    -4.50997875    -1.43784551
 C                    -0.84703490    -3.07760286    -0.09098842
 O                    -1.68860245    -3.21114367     0.78657235
 N                     0.17681313    -2.23540298    -0.01493861
 H                     0.81392709    -2.16338335    -0.80355067
 C                     0.40558665    -1.25490230     1.05445425
 H                     0.12643514    -1.68581642     2.01675174
 C                     1.90497247    -0.89753505     1.07525801
 H                     2.09465147    -0.24449248     1.92962109
 H                     2.48863299    -1.80865836     1.21649793
 C                     2.36922422    -0.19995057    -0.21563013
 O                     2.02987454    -0.70291290    -1.31397192
 O                     2.95837003     0.89323494    -0.09837116
 C                    -0.40556140     0.04179202     0.85385588
 O                    -0.87613849     0.63386723     1.82263869
 N                    -0.54170888     0.48208878    -0.40452388
 H                    -0.01735602    -0.03469309    -1.10196175
 C                    -1.11485900     1.76716826    -0.81671640
 H                    -0.93667428     1.84004705    -1.88869256
 C                    -2.64073761     1.74098264    -0.62869042
 H                    -3.05859107     0.85443264    -1.10694620
 H                    -2.88211949     1.72432199     0.43494073
 H                    -3.08213233     2.63111750    -1.07750622
 C                    -0.41729370     3.01770478    -0.21962843
 O                    -1.01095629     4.09183629    -0.13748686
 N                     0.84907722     2.93675892     0.17226248
 H                     1.28403963     3.75111388     0.56568808
 H                     1.38088633     2.08002722     0.06097520

 ==============================================================================
                                internuclear distances
 ------------------------------------------------------------------------------
       center one      |      center two      | atomic units |  angstroms
 ------------------------------------------------------------------------------
    2 C                |   1 H                |     2.05663  |     1.08832
    3 H                |   2 C                |     2.05635  |     1.08817
    4 H                |   2 C                |     2.05587  |     1.08792
    5 C                |   2 C                |     2.85221  |     1.50932
    6 O                |   5 C                |     2.31148  |     1.22319
    7 N                |   5 C                |     2.50939  |     1.32791
    8 H                |   7 N                |     1.92066  |     1.01637
    9 C                |   7 N                |     2.77560  |     1.46878
   10 H                |   9 C                |     2.06113  |     1.09070
   11 C                |   9 C                |     2.91306  |     1.54153
   12 H                |  11 C                |     2.06351  |     1.09196
   13 H                |  11 C                |     2.06210  |     1.09122
   14 C                |  11 C                |     2.90830  |     1.53901
   15 O                |  14 C                |     2.37120  |     1.25478
   16 O                |  14 C                |     2.35716  |     1.24736
   17 C                |   9 C                |     2.91509  |     1.54260
   18 O                |  17 C                |     2.32255  |     1.22904
   19 N                |  17 C                |     2.53246  |     1.34012
   20 H                |  19 N                |     1.91640  |     1.01411
   21 C                |  19 N                |     2.77077  |     1.46623
   22 H                |  21 C                |     2.05815  |     1.08913
   23 C                |  21 C                |     2.90572  |     1.53764
   24 H                |  23 C                |     2.06084  |     1.09055
   25 H                |  23 C                |     2.06132  |     1.09080
   26 H                |  23 C                |     2.06024  |     1.09023
   27 C                |  21 C                |     2.93179  |     1.55144
   28 O                |  27 C                |     2.32439  |     1.23002
   29 N                |  27 C                |     2.50973  |     1.32809
   30 H                |  29 N                |     1.89647  |     1.00357
   31 H                |  29 N                |     1.91711  |     1.01449
 ------------------------------------------------------------------------------
                         number of included internuclear distances:         30
 ==============================================================================



 ==============================================================================
                                 internuclear angles
 ------------------------------------------------------------------------------
        center 1       |       center 2       |       center 3       |  degrees
 ------------------------------------------------------------------------------
    1 H                |   2 C                |   3 H                |   110.03
    1 H                |   2 C                |   4 H                |   110.09
    1 H                |   2 C                |   5 C                |   108.94
    3 H                |   2 C                |   4 H                |   109.83
    3 H                |   2 C                |   5 C                |   108.94
    4 H                |   2 C                |   5 C                |   108.99
    2 C                |   5 C                |   6 O                |   120.15
    2 C                |   5 C                |   7 N                |   115.89
    6 O                |   5 C                |   7 N                |   123.96
    5 C                |   7 N                |   8 H                |   118.94
    5 C                |   7 N                |   9 C                |   125.82
    8 H                |   7 N                |   9 C                |   114.83
    7 N                |   9 C                |  10 H                |   109.80
    7 N                |   9 C                |  11 C                |   108.43
    7 N                |   9 C                |  17 C                |   112.62
   10 H                |   9 C                |  11 C                |   109.19
   10 H                |   9 C                |  17 C                |   108.19
   11 C                |   9 C                |  17 C                |   108.56
    9 C                |  11 C                |  12 H                |   108.55
    9 C                |  11 C                |  13 H                |   109.17
    9 C                |  11 C                |  14 C                |   112.78
   12 H                |  11 C                |  13 H                |   107.77
   12 H                |  11 C                |  14 C                |   109.44
   13 H                |  11 C                |  14 C                |   109.01
   11 C                |  14 C                |  15 O                |   118.10
   11 C                |  14 C                |  16 O                |   117.44
   15 O                |  14 C                |  16 O                |   124.15
    9 C                |  17 C                |  18 O                |   120.25
    9 C                |  17 C                |  19 N                |   116.85
   18 O                |  17 C                |  19 N                |   122.89
   17 C                |  19 N                |  20 H                |   115.20
   17 C                |  19 N                |  21 C                |   126.27
   20 H                |  19 N                |  21 C                |   117.09
   19 N                |  21 C                |  22 H                |   105.75
   19 N                |  21 C                |  23 C                |   109.79
   19 N                |  21 C                |  27 C                |   114.99
   22 H                |  21 C                |  23 C                |   106.49
   22 H                |  21 C                |  27 C                |   104.55
   23 C                |  21 C                |  27 C                |   114.38
   21 C                |  23 C                |  24 H                |   109.90
   21 C                |  23 C                |  25 H                |   109.82
   21 C                |  23 C                |  26 H                |   109.73
   24 H                |  23 C                |  25 H                |   109.29
   24 H                |  23 C                |  26 H                |   109.15
   25 H                |  23 C                |  26 H                |   108.92
   21 C                |  27 C                |  28 O                |   120.84
   21 C                |  27 C                |  29 N                |   119.55
   28 O                |  27 C                |  29 N                |   119.59
   27 C                |  29 N                |  30 H                |   118.65
   27 C                |  29 N                |  31 H                |   121.26
   30 H                |  29 N                |  31 H                |   120.07
 ------------------------------------------------------------------------------
                            number of included internuclear angles:         51
 ==============================================================================



  library name resolved from: environment
  library file name is: </opt/rit/el9/20230413/app/linux-rhel9-x86_64_v3/gcc-11.2.1/nwchem-7.2.0-oxtctbuhfuzyfaoziquq6bki22grib3g/share/nwchem/libraries/>
  


 Summary of "ao basis" -> "" (cartesian)
 ------------------------------------------------------------------------------
       Tag                 Description            Shells   Functions and Types
 ---------------- ------------------------------  ------  ---------------------
 *                        aug-cc-pvdz                 on all atoms 


                      Basis "ao basis" -> "ao basis" (cartesian)
                      -----
  H (Hydrogen)
  ------------
            Exponent  Coefficients 
       -------------- ---------------------------------------------------------
  1 S  1.30100000E+01  0.019685
  1 S  1.96200000E+00  0.137977
  1 S  4.44600000E-01  0.478148

  2 S  1.22000000E-01  1.000000

  3 S  2.97400000E-02  1.000000

  4 P  7.27000000E-01  1.000000

  5 P  1.41000000E-01  1.000000

  C (Carbon)
  ----------
            Exponent  Coefficients 
       -------------- ---------------------------------------------------------
  1 S  6.66500000E+03  0.000692
  1 S  1.00000000E+03  0.005329
  1 S  2.28000000E+02  0.027077
  1 S  6.47100000E+01  0.101718
  1 S  2.10600000E+01  0.274740
  1 S  7.49500000E+00  0.448564
  1 S  2.79700000E+00  0.285074
  1 S  5.21500000E-01  0.015204

  2 S  6.66500000E+03 -0.000146
  2 S  1.00000000E+03 -0.001154
  2 S  2.28000000E+02 -0.005725
  2 S  6.47100000E+01 -0.023312
  2 S  2.10600000E+01 -0.063955
  2 S  7.49500000E+00 -0.149981
  2 S  2.79700000E+00 -0.127262
  2 S  5.21500000E-01  0.544529

  3 S  1.59600000E-01  1.000000

  4 S  4.69000000E-02  1.000000

  5 P  9.43900000E+00  0.038109
  5 P  2.00200000E+00  0.209480
  5 P  5.45600000E-01  0.508557

  6 P  1.51700000E-01  1.000000

  7 P  4.04100000E-02  1.000000

  8 D  5.50000000E-01  1.000000

  9 D  1.51000000E-01  1.000000

  O (Oxygen)
  ----------
            Exponent  Coefficients 
       -------------- ---------------------------------------------------------
  1 S  1.17200000E+04  0.000710
  1 S  1.75900000E+03  0.005470
  1 S  4.00800000E+02  0.027837
  1 S  1.13700000E+02  0.104800
  1 S  3.70300000E+01  0.283062
  1 S  1.32700000E+01  0.448719
  1 S  5.02500000E+00  0.270952
  1 S  1.01300000E+00  0.015458

  2 S  1.17200000E+04 -0.000160
  2 S  1.75900000E+03 -0.001263
  2 S  4.00800000E+02 -0.006267
  2 S  1.13700000E+02 -0.025716
  2 S  3.70300000E+01 -0.070924
  2 S  1.32700000E+01 -0.165411
  2 S  5.02500000E+00 -0.116955
  2 S  1.01300000E+00  0.557368

  3 S  3.02300000E-01  1.000000

  4 S  7.89600000E-02  1.000000

  5 P  1.77000000E+01  0.043018
  5 P  3.85400000E+00  0.228913
  5 P  1.04600000E+00  0.508728

  6 P  2.75300000E-01  1.000000

  7 P  6.85600000E-02  1.000000

  8 D  1.18500000E+00  1.000000

  9 D  3.32000000E-01  1.000000

  N (Nitrogen)
  ------------
            Exponent  Coefficients 
       -------------- ---------------------------------------------------------
  1 S  9.04600000E+03  0.000700
  1 S  1.35700000E+03  0.005389
  1 S  3.09300000E+02  0.027406
  1 S  8.77300000E+01  0.103207
  1 S  2.85600000E+01  0.278723
  1 S  1.02100000E+01  0.448540
  1 S  3.83800000E+00  0.278238
  1 S  7.46600000E-01  0.015440

  2 S  9.04600000E+03 -0.000153
  2 S  1.35700000E+03 -0.001208
  2 S  3.09300000E+02 -0.005992
  2 S  8.77300000E+01 -0.024544
  2 S  2.85600000E+01 -0.067459
  2 S  1.02100000E+01 -0.158078
  2 S  3.83800000E+00 -0.121831
  2 S  7.46600000E-01  0.549003

  3 S  2.24800000E-01  1.000000

  4 S  6.12400000E-02  1.000000

  5 P  1.35500000E+01  0.039919
  5 P  2.91700000E+00  0.217169
  5 P  7.97300000E-01  0.510319

  6 P  2.18500000E-01  1.000000

  7 P  5.61100000E-02  1.000000

  8 D  8.17000000E-01  1.000000

  9 D  2.30000000E-01  1.000000



 Summary of "ao basis" -> "ao basis" (cartesian)
 ------------------------------------------------------------------------------
       Tag                 Description            Shells   Functions and Types
 ---------------- ------------------------------  ------  ---------------------
 H                        aug-cc-pvdz                5        9   3s2p
 C                        aug-cc-pvdz                9       25   4s3p2d
 O                        aug-cc-pvdz                9       25   4s3p2d
 N                        aug-cc-pvdz                9       25   4s3p2d


 ------------------------------------------------------------------------
 scf: no. of closed-shell electrons is not even!                   0
 ------------------------------------------------------------------------
 ------------------------------------------------------------------------
  current input line : 
     0: 
 ------------------------------------------------------------------------
 ------------------------------------------------------------------------
 There is an error in the input file
 scf: no. of closed-shell electrons is not even!                   0
 ------------------------------------------------------------------------
 ------------------------------------------------------------------------
  current input line : 
     0: 
 ------------------------------------------------------------------------
 ------------------------------------------------------------------------
 There is an error in the input file
 ------------------------------------------------------------------------
 For more information see the NWChem manual at https://nwchemgit.github.io
 scf: no. of closed-shell electrons is not even!                   0
 ------------------------------------------------------------------------
 ------------------------------------------------------------------------
  current input line : 
     0: 
 ------------------------------------------------------------------------
 ------------------------------------------------------------------------
 There is an error in the input file
 ------------------------------------------------------------------------
 For more information see the NWChem manual at https://nwchemgit.github.io


 For further details see manual section:                                                                                                                                                                                                                                                                
 scf: no. of closed-shell electrons is not even!                   0
 ------------------------------------------------------------------------
 ------------------------------------------------------------------------
  current input line : 
     0: 
 ------------------------------------------------------------------------
 ------------------------------------------------------------------------
 There is an error in the input file
 ------------------------------------------------------------------------
 For more information see the NWChem manual at https://nwchemgit.github.io


 For further details see manual section:                                                                                                                                                                                                                                                                
 scf: no. of closed-shell electrons is not even!                   0
 ------------------------------------------------------------------------
 ------------------------------------------------------------------------
  current input line : 
     0: 
 ------------------------------------------------------------------------
 ------------------------------------------------------------------------
 There is an error in the input file
 ------------------------------------------------------------------------
 For more information see the NWChem manual at https://nwchemgit.github.io


 For further details see manual section:                                                                                                                                                                                                                                                                
 scf: no. of closed-shell electrons is not even!                   0
 ------------------------------------------------------------------------
 ------------------------------------------------------------------------
  current input line : 
     0: 
 ------------------------------------------------------------------------
 ------------------------------------------------------------------------
 There is an error in the input file
 ------------------------------------------------------------------------
 For more information see the NWChem manual at https://nwchemgit.github.io


 For further details see manual section:                                                                                                                                                                                                                                                                
 scf: no. of closed-shell electrons is not even!                   0
 ------------------------------------------------------------------------
 ------------------------------------------------------------------------
  current input line : 
     0: 
 ------------------------------------------------------------------------
 ------------------------------------------------------------------------
 There is an error in the input file
 ------------------------------------------------------------------------
 For more information see the NWChem manual at https://nwchemgit.github.io


 For further details see manual section:                                                                                                                                                                                                                                                                
 ------------------------------------------------------------------------
 For more information see the NWChem manual at https://nwchemgit.github.io


 For further details see manual section:                                                                                                                                                                                                                                                                
1:scf: no. of closed-shell electrons is not even!:Received an Error in Communication


 For further details see manual section:                                                                                                                                                                                                                                                                
2:scf: no. of closed-shell electrons is not even!:Received an Error in Communication
3:scf: no. of closed-shell electrons is not even!:Received an Error in Communication
4:scf: no. of closed-shell electrons is not even!:Received an Error in Communication
5:scf: no. of closed-shell electrons is not even!:Received an Error in Communication
6:scf: no. of closed-shell electrons is not even!:Received an Error in Communication
7:scf: no. of closed-shell electrons is not even!:Received an Error in Communication
 scf: no. of closed-shell electrons is not even!                   0
 ------------------------------------------------------------------------
 ------------------------------------------------------------------------
  current input line : 
    46: task scf energy
 ------------------------------------------------------------------------
 ------------------------------------------------------------------------
 There is an error in the input file
 ------------------------------------------------------------------------
 For more information see the NWChem manual at https://nwchemgit.github.io


 For further details see manual section:                                                                                                                                                                                                                                                                
--------------------------------------------------------------------------
MPI_ABORT was invoked on rank 1 in communicator MPI COMMUNICATOR 3 DUP FROM 0
with errorcode -1.

NOTE: invoking MPI_ABORT causes Open MPI to kill all MPI processes.
You may or may not see output from other processes, depending on
exactly when Open MPI kills them.
--------------------------------------------------------------------------
--------------------------------------------------------------------------
MPI_ABORT was invoked on rank 3 in communicator MPI COMMUNICATOR 3 DUP FROM 0
with errorcode -1.

NOTE: invoking MPI_ABORT causes Open MPI to kill all MPI processes.
You may or may not see output from other processes, depending on
exactly when Open MPI kills them.
--------------------------------------------------------------------------
--------------------------------------------------------------------------
MPI_ABORT was invoked on rank 5 in communicator MPI COMMUNICATOR 3 DUP FROM 0
with errorcode -1.

NOTE: invoking MPI_ABORT causes Open MPI to kill all MPI processes.
You may or may not see output from other processes, depending on
exactly when Open MPI kills them.
--------------------------------------------------------------------------
--------------------------------------------------------------------------
MPI_ABORT was invoked on rank 7 in communicator MPI COMMUNICATOR 3 DUP FROM 0
with errorcode -1.

NOTE: invoking MPI_ABORT causes Open MPI to kill all MPI processes.
You may or may not see output from other processes, depending on
exactly when Open MPI kills them.
--------------------------------------------------------------------------
0:scf: no. of closed-shell electrons is not even!:Received an Error in Communication
--------------------------------------------------------------------------
MPI_ABORT was invoked on rank 4 in communicator MPI COMMUNICATOR 3 DUP FROM 0
with errorcode -1.

NOTE: invoking MPI_ABORT causes Open MPI to kill all MPI processes.
You may or may not see output from other processes, depending on
exactly when Open MPI kills them.
--------------------------------------------------------------------------
--------------------------------------------------------------------------
MPI_ABORT was invoked on rank 6 in communicator MPI COMMUNICATOR 3 DUP FROM 0
with errorcode -1.

NOTE: invoking MPI_ABORT causes Open MPI to kill all MPI processes.
You may or may not see output from other processes, depending on
exactly when Open MPI kills them.
--------------------------------------------------------------------------
--------------------------------------------------------------------------
MPI_ABORT was invoked on rank 2 in communicator MPI COMMUNICATOR 3 DUP FROM 0
with errorcode -1.

NOTE: invoking MPI_ABORT causes Open MPI to kill all MPI processes.
You may or may not see output from other processes, depending on
exactly when Open MPI kills them.
--------------------------------------------------------------------------
--------------------------------------------------------------------------
MPI_ABORT was invoked on rank 0 in communicator MPI COMMUNICATOR 3 DUP FROM 0
with errorcode -1.

NOTE: invoking MPI_ABORT causes Open MPI to kill all MPI processes.
You may or may not see output from other processes, depending on
exactly when Open MPI kills them.
--------------------------------------------------------------------------
slurmstepd: error: *** STEP 6619389.78 ON nova21-speedy-11 CANCELLED AT 2025-07-10T11:10:15 ***
srun: Job step aborted: Waiting up to 32 seconds for job step to finish.
slurmstepd: error: --task-epilog failed status=9
srun: error: nova21-speedy-11: tasks 0-7: Killed
