export TMOUT=5400
export TMPDIR=/tmp
export PTMPDIR=/tmp/ptmp
 argument  1 = inputs/ASP_ALA_3.nw



============================== echo of input deck ==============================
start ASP_ALA_3
geometry
H          4.41400        7.52200        1.50500
C          4.89800        8.32100        2.06300
H          5.69000        7.91100        2.68600
H          4.16800        8.83800        2.68200
C          5.50200        9.30400        1.08900
O          6.70700        9.51400        1.10400
N          4.65000        9.89900        0.26200
H          3.66500        9.70100        0.35600
C          4.99100       10.89100       -0.76500
H          5.84700       11.48000       -0.43100
C          5.38400       10.16600       -2.06800
H          6.25100        9.53100       -1.87700
H          4.55600        9.52700       -2.38100
C          5.72900       11.14100       -3.19800
O          5.23600       10.91900       -4.32300
O          6.36500       12.17900       -2.90600
C          3.80500       11.85700       -0.99000
O          2.67600       11.56900       -0.58500
N          4.05200       13.00100       -1.63300
H          4.99200       13.11100       -2.01300
C          3.03100       13.95400       -2.06600
H          2.27000       14.02700       -1.28800
C          3.70800       15.32300       -2.21200
H          4.16500       15.61300       -1.26500
H          4.47700       15.27500       -2.98400
H          2.96400       16.07000       -2.49300
C          2.30600       13.55000       -3.37100
O          1.24400       14.08900       -3.67500
N          2.83500       12.63100       -4.17100
H          3.73200       12.20200       -3.96400
H          2.34600       12.38300       -5.01200
end

basis
 * library aug-cc-pvdz
end

echo

scf
 direct
end

task scf energy
================================================================================


                                         
                                         


             Northwest Computational Chemistry Package (NWChem) 7.2.0
             --------------------------------------------------------


                    Environmental Molecular Sciences Laboratory
                       Pacific Northwest National Laboratory
                                Richland, WA 99352

                              Copyright (c) 1994-2022
                       Pacific Northwest National Laboratory
                            Battelle Memorial Institute

             NWChem is an open-source computational chemistry package
                        distributed under the terms of the
                      Educational Community License (ECL) 2.0
             A copy of the license is included with this distribution
                              in the LICENSE.TXT file

                                  ACKNOWLEDGMENT
                                  --------------

            This software and its documentation were developed at the
            EMSL at Pacific Northwest National Laboratory, a multiprogram
            national laboratory, operated for the U.S. Department of Energy
            by Battelle under Contract Number DE-AC05-76RL01830. Support
            for this work was provided by the Department of Energy Office
            of Biological and Environmental Research, Office of Basic
            Energy Sciences, and the Office of Advanced Scientific Computing.


           Job information
           ---------------

    hostname        = nova21-swift-4
    program         = /opt/rit/el9/20230413/app/linux-rhel9-x86_64_v3/gcc-11.2.1/nwchem-7.2.0-oxtctbuhfuzyfaoziquq6bki22grib3g/bin/nwchem
    date            = Thu Jul 10 09:26:33 2025

    compiled        = Wed_May_17_23:46:39_2023
    source          = /tmp/root/spack-stage/spack-stage-nwchem-7.2.0-oxtctbuhfuzyfaoziquq6bki22grib3g/spack-src
    nwchem branch   = 7.2.0
    nwchem revision = d0d141fd
    ga revision     = 5.8.0
    use scalapack   = T
    input           = inputs/ASP_ALA_3.nw
    prefix          = ASP_ALA_3.
    data base       = ./ASP_ALA_3.db
    status          = startup
    nproc           =        8
    time left       =     -1s



           Memory information
           ------------------

    heap     =   26214396 doubles =    200.0 Mbytes
    stack    =   26214401 doubles =    200.0 Mbytes
    global   =   52428800 doubles =    400.0 Mbytes (distinct from heap & stack)
    total    =  104857597 doubles =    800.0 Mbytes
    verify   = yes
    hardfail = no 


           Directory information
           ---------------------

  0 permanent = .
  0 scratch   = .




                                NWChem Input Module
                                -------------------



 Scaling coordinates for geometry "geometry" by  1.889725989
 (inverse scale =  0.529177249)

 C1  symmetry detected

          ------
          auto-z
          ------
  no constraints, skipping    0.0000000000000000     
  no constraints, skipping    0.0000000000000000     


                             Geometry "geometry" -> ""
                             -------------------------

 Output coordinates in angstroms (scale by  1.889725989 to convert to a.u.)

  No.       Tag          Charge          X              Y              Z
 ---- ---------------- ---------- -------------- -------------- --------------
    1 H                    1.0000    -1.09487934    -4.75764102    -1.74854375
    2 C                    6.0000    -1.34954353    -4.76871061    -0.69069470
    3 H                    1.0000    -1.15081845    -5.75286575    -0.27183912
    4 H                    1.0000    -2.39841426    -4.51281533    -0.55751139
    5 C                    6.0000    -0.49893615    -3.75029809     0.02978016
    6 O                    8.0000     0.25350616    -4.10908266     0.92501991
    7 N                    7.0000    -0.64037918    -2.49099880    -0.36773360
    8 H                    1.0000    -1.32322456    -2.28157441    -1.08056500
    9 C                    6.0000     0.06749495    -1.32665025     0.17841715
   10 H                    1.0000     0.27069130    -1.48944145     1.23833379
   11 C                    6.0000     1.41598189    -1.15795769    -0.55028635
   12 H                    1.0000     2.02076417    -2.05345026    -0.39625241
   13 H                    1.0000     1.22906668    -1.05303135    -1.62076622
   14 C                    6.0000     2.20248497     0.05764417    -0.05001140
   15 O                    8.0000     2.70774825     0.81128704    -0.90715166
   16 O                    8.0000     2.17846442     0.31029478     1.17587387
   17 C                    6.0000    -0.80852870    -0.05927677     0.04909572
   18 O                    8.0000    -1.78384426    -0.04538122    -0.70600457
   19 N                    7.0000    -0.46849930     1.00531278     0.78000140
   20 H                    1.0000     0.40461401     0.93375901     1.30216345
   21 C                    6.0000    -1.08494090     2.32666466     0.66969287
   22 H                    1.0000    -2.15883559     2.19949309     0.52717418
   23 C                    6.0000    -0.85541137     3.05684189     1.99934071
   24 H                    1.0000    -1.27718274     2.47424202     2.81936772
   25 H                    1.0000     0.21368526     3.19371628     2.16651369
   26 H                    1.0000    -1.34133237     4.03327154     1.96816518
   27 C                    6.0000    -0.56696252     3.16529151    -0.52205770
   28 O                    8.0000    -1.20147050     4.14638295    -0.90368604
   29 N                    7.0000     0.56916589     2.83548683    -1.12608015
   30 H                    1.0000     1.13348826     2.05539571    -0.80282003
   31 H                    1.0000     0.88530139     3.39303625    -1.89880455

      Atomic Mass 
      ----------- 

      H                  1.007825
      C                 12.000000
      O                 15.994910
      N                 14.003070


 Effective nuclear repulsion energy (a.u.)    1285.4384068648

            Nuclear Dipole moment (a.u.) 
            ----------------------------
        X                 Y               Z
 ---------------- ---------------- ----------------
     0.0000000000     0.0000000000     0.0000000000



                                Z-matrix (autoz)
                                -------- 

 Units are Angstrom for bonds and degrees for angles

      Type          Name      I     J     K     L     M      Value
      ----------- --------  ----- ----- ----- ----- ----- ----------
    1 Stretch                  1     2                       1.08813
    2 Stretch                  2     3                       1.08788
    3 Stretch                  2     4                       1.08782
    4 Stretch                  2     5                       1.50989
    5 Stretch                  5     6                       1.22325
    6 Stretch                  5     7                       1.32810
    7 Stretch                  7     8                       1.00909
    8 Stretch                  7     9                       1.46802
    9 Stretch                  9    10                       1.09143
   10 Stretch                  9    11                       1.54204
   11 Stretch                  9    17                       1.54608
   12 Stretch                 11    12                       1.09151
   13 Stretch                 11    13                       1.09173
   14 Stretch                 11    14                       1.53185
   15 Stretch                 14    15                       1.24818
   16 Stretch                 14    16                       1.25188
   17 Stretch                 17    18                       1.23354
   18 Stretch                 17    19                       1.33536
   19 Stretch                 19    20                       1.01985
   20 Stretch                 19    21                       1.46224
   21 Stretch                 21    22                       1.09075
   22 Stretch                 21    23                       1.53421
   23 Stretch                 21    27                       1.54657
   24 Stretch                 23    24                       1.09076
   25 Stretch                 23    25                       1.09071
   26 Stretch                 23    26                       1.09110
   27 Stretch                 27    28                       1.22914
   28 Stretch                 27    29                       1.32831
   29 Stretch                 29    30                       1.01563
   30 Stretch                 29    31                       1.00395
   31 Bend                     1     2     3               109.92293
   32 Bend                     1     2     4               110.01652
   33 Bend                     1     2     5               108.97663
   34 Bend                     2     5     6               119.86211
   35 Bend                     2     5     7               115.89550
   36 Bend                     3     2     4               109.98655
   37 Bend                     3     2     5               108.87789
   38 Bend                     4     2     5               109.03218
   39 Bend                     5     7     8               118.70426
   40 Bend                     5     7     9               126.11069
   41 Bend                     6     5     7               124.24053
   42 Bend                     7     9    10               109.43664
   43 Bend                     7     9    11               109.42866
   44 Bend                     7     9    17               110.23242
   45 Bend                     8     7     9               115.11904
   46 Bend                     9    11    12               109.15317
   47 Bend                     9    11    13               108.91433
   48 Bend                     9    11    14               112.42490
   49 Bend                     9    17    18               120.55961
   50 Bend                     9    17    19               117.61013
   51 Bend                    10     9    11               108.20546
   52 Bend                    10     9    17               107.99803
   53 Bend                    11     9    17               111.48681
   54 Bend                    11    14    15               117.56224
   55 Bend                    11    14    16               118.04097
   56 Bend                    12    11    13               108.18507
   57 Bend                    12    11    14               108.69157
   58 Bend                    13    11    14               109.38190
   59 Bend                    15    14    16               123.94268
   60 Bend                    17    19    20               116.25087
   61 Bend                    17    19    21               124.87431
   62 Bend                    18    17    19               121.83026
   63 Bend                    19    21    22               108.63627
   64 Bend                    19    21    23               107.55517
   65 Bend                    19    21    27               114.01289
   66 Bend                    20    19    21               117.57710
   67 Bend                    21    23    24               109.84635
   68 Bend                    21    23    25               109.82822
   69 Bend                    21    23    26               109.54336
   70 Bend                    21    27    28               119.94580
   71 Bend                    21    27    29               120.14803
   72 Bend                    22    21    23               108.42267
   73 Bend                    22    21    27               106.99469
   74 Bend                    23    21    27               111.07891
   75 Bend                    24    23    25               109.31821
   76 Bend                    24    23    26               109.10268
   77 Bend                    25    23    26               109.18385
   78 Bend                    27    29    30               121.41431
   79 Bend                    27    29    31               118.77986
   80 Bend                    28    27    29               119.90287
   81 Bend                    30    29    31               119.77386
   82 Torsion                  1     2     5     6        -119.88306
   83 Torsion                  1     2     5     7          60.59173
   84 Torsion                  2     5     7     8           2.84347
   85 Torsion                  2     5     7     9         179.73445
   86 Torsion                  3     2     5     6           0.01176
   87 Torsion                  3     2     5     7        -179.51345
   88 Torsion                  4     2     5     6         120.01669
   89 Torsion                  4     2     5     7         -59.50852
   90 Torsion                  5     7     9    10         -31.72065
   91 Torsion                  5     7     9    11          86.68927
   92 Torsion                  5     7     9    17        -150.35797
   93 Torsion                  6     5     7     8        -176.65846
   94 Torsion                  6     5     7     9           0.23252
   95 Torsion                  7     9    11    12         -60.38989
   96 Torsion                  7     9    11    13          57.53047
   97 Torsion                  7     9    11    14         178.92377
   98 Torsion                  7     9    17    18         -16.19880
   99 Torsion                  7     9    17    19         163.80600
  100 Torsion                  8     7     9    10         145.26765
  101 Torsion                  8     7     9    11         -96.32242
  102 Torsion                  8     7     9    17          26.63034
  103 Torsion                  9    11    14    15        -133.88247
  104 Torsion                  9    11    14    16          38.69443
  105 Torsion                  9    17    19    20           5.98002
  106 Torsion                  9    17    19    21         172.60545
  107 Torsion                 10     9    11    12          58.78363
  108 Torsion                 10     9    11    13         176.70399
  109 Torsion                 10     9    11    14         -61.90271
  110 Torsion                 10     9    17    18        -135.71275
  111 Torsion                 10     9    17    19          44.29205
  112 Torsion                 11     9    17    18         105.54154
  113 Torsion                 11     9    17    19         -74.45366
  114 Torsion                 12    11     9    17         177.40540
  115 Torsion                 12    11    14    15         105.16594
  116 Torsion                 12    11    14    16         -82.25716
  117 Torsion                 13    11     9    17         -64.67423
  118 Torsion                 13    11    14    15         -12.75661
  119 Torsion                 13    11    14    16         159.82029
  120 Torsion                 14    11     9    17          56.71907
  121 Torsion                 17    19    21    22          39.72783
  122 Torsion                 17    19    21    23         156.88881
  123 Torsion                 17    19    21    27         -79.47629
  124 Torsion                 18    17    19    20        -174.01512
  125 Torsion                 18    17    19    21          -7.38969
  126 Torsion                 19    21    23    24         -57.73359
  127 Torsion                 19    21    23    25          62.53236
  128 Torsion                 19    21    23    26        -177.55632
  129 Torsion                 19    21    27    28         163.57353
  130 Torsion                 19    21    27    29         -17.08728
  131 Torsion                 20    19    21    22        -153.80782
  132 Torsion                 20    19    21    23         -36.64683
  133 Torsion                 20    19    21    27          86.98806
  134 Torsion                 21    27    29    30          -2.18563
  135 Torsion                 21    27    29    31         179.87598
  136 Torsion                 22    21    23    24          59.56652
  137 Torsion                 22    21    23    25         179.83247
  138 Torsion                 22    21    23    26         -60.25622
  139 Torsion                 22    21    27    28          43.44326
  140 Torsion                 22    21    27    29        -137.21755
  141 Torsion                 23    21    27    28         -74.71807
  142 Torsion                 23    21    27    29         104.62112
  143 Torsion                 24    23    21    27         176.86035
  144 Torsion                 25    23    21    27         -62.87370
  145 Torsion                 26    23    21    27          57.03762
  146 Torsion                 28    27    29    30         177.15385
  147 Torsion                 28    27    29    31          -0.78455


            XYZ format geometry
            -------------------
    31
 geometry
 H                    -1.09487934    -4.75764102    -1.74854375
 C                    -1.34954353    -4.76871061    -0.69069470
 H                    -1.15081845    -5.75286575    -0.27183912
 H                    -2.39841426    -4.51281533    -0.55751139
 C                    -0.49893615    -3.75029809     0.02978016
 O                     0.25350616    -4.10908266     0.92501991
 N                    -0.64037918    -2.49099880    -0.36773360
 H                    -1.32322456    -2.28157441    -1.08056500
 C                     0.06749495    -1.32665025     0.17841715
 H                     0.27069130    -1.48944145     1.23833379
 C                     1.41598189    -1.15795769    -0.55028635
 H                     2.02076417    -2.05345026    -0.39625241
 H                     1.22906668    -1.05303135    -1.62076622
 C                     2.20248497     0.05764417    -0.05001140
 O                     2.70774825     0.81128704    -0.90715166
 O                     2.17846442     0.31029478     1.17587387
 C                    -0.80852870    -0.05927677     0.04909572
 O                    -1.78384426    -0.04538122    -0.70600457
 N                    -0.46849930     1.00531278     0.78000140
 H                     0.40461401     0.93375901     1.30216345
 C                    -1.08494090     2.32666466     0.66969287
 H                    -2.15883559     2.19949309     0.52717418
 C                    -0.85541137     3.05684189     1.99934071
 H                    -1.27718274     2.47424202     2.81936772
 H                     0.21368526     3.19371628     2.16651369
 H                    -1.34133237     4.03327154     1.96816518
 C                    -0.56696252     3.16529151    -0.52205770
 O                    -1.20147050     4.14638295    -0.90368604
 N                     0.56916589     2.83548683    -1.12608015
 H                     1.13348826     2.05539571    -0.80282003
 H                     0.88530139     3.39303625    -1.89880455

 ==============================================================================
                                internuclear distances
 ------------------------------------------------------------------------------
       center one      |      center two      | atomic units |  angstroms
 ------------------------------------------------------------------------------
    2 C                |   1 H                |     2.05626  |     1.08813
    3 H                |   2 C                |     2.05580  |     1.08788
    4 H                |   2 C                |     2.05568  |     1.08782
    5 C                |   2 C                |     2.85329  |     1.50989
    6 O                |   5 C                |     2.31161  |     1.22325
    7 N                |   5 C                |     2.50975  |     1.32810
    8 H                |   7 N                |     1.90691  |     1.00909
    9 C                |   7 N                |     2.77415  |     1.46802
   10 H                |   9 C                |     2.06250  |     1.09143
   11 C                |   9 C                |     2.91403  |     1.54204
   12 H                |  11 C                |     2.06266  |     1.09151
   13 H                |  11 C                |     2.06307  |     1.09173
   14 C                |  11 C                |     2.89477  |     1.53185
   15 O                |  14 C                |     2.35872  |     1.24818
   16 O                |  14 C                |     2.36571  |     1.25188
   17 C                |   9 C                |     2.92168  |     1.54608
   18 O                |  17 C                |     2.33104  |     1.23354
   19 N                |  17 C                |     2.52347  |     1.33536
   20 H                |  19 N                |     1.92724  |     1.01985
   21 C                |  19 N                |     2.76323  |     1.46224
   22 H                |  21 C                |     2.06122  |     1.09075
   23 C                |  21 C                |     2.89924  |     1.53421
   24 H                |  23 C                |     2.06124  |     1.09076
   25 H                |  23 C                |     2.06114  |     1.09071
   26 H                |  23 C                |     2.06189  |     1.09110
   27 C                |  21 C                |     2.92259  |     1.54657
   28 O                |  27 C                |     2.32273  |     1.22914
   29 N                |  27 C                |     2.51014  |     1.32831
   30 H                |  29 N                |     1.91926  |     1.01563
   31 H                |  29 N                |     1.89718  |     1.00395
 ------------------------------------------------------------------------------
                         number of included internuclear distances:         30
 ==============================================================================



 ==============================================================================
                                 internuclear angles
 ------------------------------------------------------------------------------
        center 1       |       center 2       |       center 3       |  degrees
 ------------------------------------------------------------------------------
    1 H                |   2 C                |   3 H                |   109.92
    1 H                |   2 C                |   4 H                |   110.02
    1 H                |   2 C                |   5 C                |   108.98
    3 H                |   2 C                |   4 H                |   109.99
    3 H                |   2 C                |   5 C                |   108.88
    4 H                |   2 C                |   5 C                |   109.03
    2 C                |   5 C                |   6 O                |   119.86
    2 C                |   5 C                |   7 N                |   115.90
    6 O                |   5 C                |   7 N                |   124.24
    5 C                |   7 N                |   8 H                |   118.70
    5 C                |   7 N                |   9 C                |   126.11
    8 H                |   7 N                |   9 C                |   115.12
    7 N                |   9 C                |  10 H                |   109.44
    7 N                |   9 C                |  11 C                |   109.43
    7 N                |   9 C                |  17 C                |   110.23
   10 H                |   9 C                |  11 C                |   108.21
   10 H                |   9 C                |  17 C                |   108.00
   11 C                |   9 C                |  17 C                |   111.49
    9 C                |  11 C                |  12 H                |   109.15
    9 C                |  11 C                |  13 H                |   108.91
    9 C                |  11 C                |  14 C                |   112.42
   12 H                |  11 C                |  13 H                |   108.19
   12 H                |  11 C                |  14 C                |   108.69
   13 H                |  11 C                |  14 C                |   109.38
   11 C                |  14 C                |  15 O                |   117.56
   11 C                |  14 C                |  16 O                |   118.04
   15 O                |  14 C                |  16 O                |   123.94
    9 C                |  17 C                |  18 O                |   120.56
    9 C                |  17 C                |  19 N                |   117.61
   18 O                |  17 C                |  19 N                |   121.83
   17 C                |  19 N                |  20 H                |   116.25
   17 C                |  19 N                |  21 C                |   124.87
   20 H                |  19 N                |  21 C                |   117.58
   19 N                |  21 C                |  22 H                |   108.64
   19 N                |  21 C                |  23 C                |   107.56
   19 N                |  21 C                |  27 C                |   114.01
   22 H                |  21 C                |  23 C                |   108.42
   22 H                |  21 C                |  27 C                |   106.99
   23 C                |  21 C                |  27 C                |   111.08
   21 C                |  23 C                |  24 H                |   109.85
   21 C                |  23 C                |  25 H                |   109.83
   21 C                |  23 C                |  26 H                |   109.54
   24 H                |  23 C                |  25 H                |   109.32
   24 H                |  23 C                |  26 H                |   109.10
   25 H                |  23 C                |  26 H                |   109.18
   21 C                |  27 C                |  28 O                |   119.95
   21 C                |  27 C                |  29 N                |   120.15
   28 O                |  27 C                |  29 N                |   119.90
   27 C                |  29 N                |  30 H                |   121.41
   27 C                |  29 N                |  31 H                |   118.78
   30 H                |  29 N                |  31 H                |   119.77
 ------------------------------------------------------------------------------
                            number of included internuclear angles:         51
 ==============================================================================



  library name resolved from: environment
  library file name is: </opt/rit/el9/20230413/app/linux-rhel9-x86_64_v3/gcc-11.2.1/nwchem-7.2.0-oxtctbuhfuzyfaoziquq6bki22grib3g/share/nwchem/libraries/>
  


 Summary of "ao basis" -> "" (cartesian)
 ------------------------------------------------------------------------------
       Tag                 Description            Shells   Functions and Types
 ---------------- ------------------------------  ------  ---------------------
 *                        aug-cc-pvdz                 on all atoms 


                      Basis "ao basis" -> "ao basis" (cartesian)
                      -----
  H (Hydrogen)
  ------------
            Exponent  Coefficients 
       -------------- ---------------------------------------------------------
  1 S  1.30100000E+01  0.019685
  1 S  1.96200000E+00  0.137977
  1 S  4.44600000E-01  0.478148

  2 S  1.22000000E-01  1.000000

  3 S  2.97400000E-02  1.000000

  4 P  7.27000000E-01  1.000000

  5 P  1.41000000E-01  1.000000

  C (Carbon)
  ----------
            Exponent  Coefficients 
       -------------- ---------------------------------------------------------
  1 S  6.66500000E+03  0.000692
  1 S  1.00000000E+03  0.005329
  1 S  2.28000000E+02  0.027077
  1 S  6.47100000E+01  0.101718
  1 S  2.10600000E+01  0.274740
  1 S  7.49500000E+00  0.448564
  1 S  2.79700000E+00  0.285074
  1 S  5.21500000E-01  0.015204

  2 S  6.66500000E+03 -0.000146
  2 S  1.00000000E+03 -0.001154
  2 S  2.28000000E+02 -0.005725
  2 S  6.47100000E+01 -0.023312
  2 S  2.10600000E+01 -0.063955
  2 S  7.49500000E+00 -0.149981
  2 S  2.79700000E+00 -0.127262
  2 S  5.21500000E-01  0.544529

  3 S  1.59600000E-01  1.000000

  4 S  4.69000000E-02  1.000000

  5 P  9.43900000E+00  0.038109
  5 P  2.00200000E+00  0.209480
  5 P  5.45600000E-01  0.508557

  6 P  1.51700000E-01  1.000000

  7 P  4.04100000E-02  1.000000

  8 D  5.50000000E-01  1.000000

  9 D  1.51000000E-01  1.000000

  O (Oxygen)
  ----------
            Exponent  Coefficients 
       -------------- ---------------------------------------------------------
  1 S  1.17200000E+04  0.000710
  1 S  1.75900000E+03  0.005470
  1 S  4.00800000E+02  0.027837
  1 S  1.13700000E+02  0.104800
  1 S  3.70300000E+01  0.283062
  1 S  1.32700000E+01  0.448719
  1 S  5.02500000E+00  0.270952
  1 S  1.01300000E+00  0.015458

  2 S  1.17200000E+04 -0.000160
  2 S  1.75900000E+03 -0.001263
  2 S  4.00800000E+02 -0.006267
  2 S  1.13700000E+02 -0.025716
  2 S  3.70300000E+01 -0.070924
  2 S  1.32700000E+01 -0.165411
  2 S  5.02500000E+00 -0.116955
  2 S  1.01300000E+00  0.557368

  3 S  3.02300000E-01  1.000000

  4 S  7.89600000E-02  1.000000

  5 P  1.77000000E+01  0.043018
  5 P  3.85400000E+00  0.228913
  5 P  1.04600000E+00  0.508728

  6 P  2.75300000E-01  1.000000

  7 P  6.85600000E-02  1.000000

  8 D  1.18500000E+00  1.000000

  9 D  3.32000000E-01  1.000000

  N (Nitrogen)
  ------------
            Exponent  Coefficients 
       -------------- ---------------------------------------------------------
  1 S  9.04600000E+03  0.000700
  1 S  1.35700000E+03  0.005389
  1 S  3.09300000E+02  0.027406
  1 S  8.77300000E+01  0.103207
  1 S  2.85600000E+01  0.278723
  1 S  1.02100000E+01  0.448540
  1 S  3.83800000E+00  0.278238
  1 S  7.46600000E-01  0.015440

  2 S  9.04600000E+03 -0.000153
  2 S  1.35700000E+03 -0.001208
  2 S  3.09300000E+02 -0.005992
  2 S  8.77300000E+01 -0.024544
  2 S  2.85600000E+01 -0.067459
  2 S  1.02100000E+01 -0.158078
  2 S  3.83800000E+00 -0.121831
  2 S  7.46600000E-01  0.549003

  3 S  2.24800000E-01  1.000000

  4 S  6.12400000E-02  1.000000

  5 P  1.35500000E+01  0.039919
  5 P  2.91700000E+00  0.217169
  5 P  7.97300000E-01  0.510319

  6 P  2.18500000E-01  1.000000

  7 P  5.61100000E-02  1.000000

  8 D  8.17000000E-01  1.000000

  9 D  2.30000000E-01  1.000000



 Summary of "ao basis" -> "ao basis" (cartesian)
 ------------------------------------------------------------------------------
       Tag                 Description            Shells   Functions and Types
 ---------------- ------------------------------  ------  ---------------------
 H                        aug-cc-pvdz                5        9   3s2p
 C                        aug-cc-pvdz                9       25   4s3p2d
 O                        aug-cc-pvdz                9       25   4s3p2d
 N                        aug-cc-pvdz                9       25   4s3p2d


 ------------------------------------------------------------------------
 scf: no. of closed-shell electrons is not even!                   0
 ------------------------------------------------------------------------
 ------------------------------------------------------------------------
  current input line : 
     0: 
 scf: no. of closed-shell electrons is not even!                   0
 ------------------------------------------------------------------------
 ------------------------------------------------------------------------
  current input line : 
     0: 
 ------------------------------------------------------------------------
 ------------------------------------------------------------------------
 There is an error in the input file
 scf: no. of closed-shell electrons is not even!                   0
 ------------------------------------------------------------------------
 ------------------------------------------------------------------------
  current input line : 
     0: 
 ------------------------------------------------------------------------
 ------------------------------------------------------------------------
 There is an error in the input file
 ------------------------------------------------------------------------
 For more information see the NWChem manual at https://nwchemgit.github.io

 scf: no. of closed-shell electrons is not even!                   0
 ------------------------------------------------------------------------
 ------------------------------------------------------------------------
  current input line : 
     0: 
 ------------------------------------------------------------------------
 ------------------------------------------------------------------------
 There is an error in the input file
 ------------------------------------------------------------------------
 For more information see the NWChem manual at https://nwchemgit.github.io


 For further details see manual section:                                                                                                                                                                                                                                                                
 scf: no. of closed-shell electrons is not even!                   0
 ------------------------------------------------------------------------
 ------------------------------------------------------------------------
  current input line : 
     0: 
 ------------------------------------------------------------------------
 ------------------------------------------------------------------------
 There is an error in the input file
 ------------------------------------------------------------------------
 For more information see the NWChem manual at https://nwchemgit.github.io


 For further details see manual section:                                                                                                                                                                                                                                                                
 scf: no. of closed-shell electrons is not even!                   0
 ------------------------------------------------------------------------
 ------------------------------------------------------------------------
  current input line : 
     0: 
 ------------------------------------------------------------------------
 ------------------------------------------------------------------------
 There is an error in the input file
 ------------------------------------------------------------------------
 For more information see the NWChem manual at https://nwchemgit.github.io


 For further details see manual section:                                                                                                                                                                                                                                                                
 scf: no. of closed-shell electrons is not even!                   0
 ------------------------------------------------------------------------
 ------------------------------------------------------------------------
  current input line : 
     0: 
 ------------------------------------------------------------------------
 ------------------------------------------------------------------------
 There is an error in the input file
 ------------------------------------------------------------------------
 For more information see the NWChem manual at https://nwchemgit.github.io


 For further details see manual section:                                                                                                                                                                                                                                                                
 ------------------------------------------------------------------------
 ------------------------------------------------------------------------
 There is an error in the input file
 ------------------------------------------------------------------------
 For more information see the NWChem manual at https://nwchemgit.github.io


 For further details see manual section:                                                                                                                                                                                                                                                                
1:scf: no. of closed-shell electrons is not even!:Received an Error in Communication
 ------------------------------------------------------------------------
 For more information see the NWChem manual at https://nwchemgit.github.io


 For further details see manual section:                                                                                                                                                                                                                                                                
2:scf: no. of closed-shell electrons is not even!:Received an Error in Communication

 For further details see manual section:                                                                                                                                                                                                                                                                
3:scf: no. of closed-shell electrons is not even!:Received an Error in Communication
4:scf: no. of closed-shell electrons is not even!:Received an Error in Communication
5:scf: no. of closed-shell electrons is not even!:Received an Error in Communication
6:scf: no. of closed-shell electrons is not even!:Received an Error in Communication
7:scf: no. of closed-shell electrons is not even!:Received an Error in Communication
 scf: no. of closed-shell electrons is not even!                   0
 ------------------------------------------------------------------------
 ------------------------------------------------------------------------
  current input line : 
    46: task scf energy
 ------------------------------------------------------------------------
 ------------------------------------------------------------------------
 There is an error in the input file
 ------------------------------------------------------------------------
 For more information see the NWChem manual at https://nwchemgit.github.io


 For further details see manual section:                                                                                                                                                                                                                                                                
0:scf: no. of closed-shell electrons is not even!:Received an Error in Communication
--------------------------------------------------------------------------
MPI_ABORT was invoked on rank 0 in communicator MPI COMMUNICATOR 3 DUP FROM 0
with errorcode -1.

NOTE: invoking MPI_ABORT causes Open MPI to kill all MPI processes.
You may or may not see output from other processes, depending on
exactly when Open MPI kills them.
--------------------------------------------------------------------------
--------------------------------------------------------------------------
MPI_ABORT was invoked on rank 6 in communicator MPI COMMUNICATOR 3 DUP FROM 0
with errorcode -1.

NOTE: invoking MPI_ABORT causes Open MPI to kill all MPI processes.
You may or may not see output from other processes, depending on
exactly when Open MPI kills them.
--------------------------------------------------------------------------
--------------------------------------------------------------------------
MPI_ABORT was invoked on rank 7 in communicator MPI COMMUNICATOR 3 DUP FROM 0
with errorcode -1.

NOTE: invoking MPI_ABORT causes Open MPI to kill all MPI processes.
You may or may not see output from other processes, depending on
exactly when Open MPI kills them.
--------------------------------------------------------------------------
--------------------------------------------------------------------------
MPI_ABORT was invoked on rank 1 in communicator MPI COMMUNICATOR 3 DUP FROM 0
with errorcode -1.

NOTE: invoking MPI_ABORT causes Open MPI to kill all MPI processes.
You may or may not see output from other processes, depending on
exactly when Open MPI kills them.
--------------------------------------------------------------------------
--------------------------------------------------------------------------
MPI_ABORT was invoked on rank 2 in communicator MPI COMMUNICATOR 3 DUP FROM 0
with errorcode -1.

NOTE: invoking MPI_ABORT causes Open MPI to kill all MPI processes.
You may or may not see output from other processes, depending on
exactly when Open MPI kills them.
--------------------------------------------------------------------------
--------------------------------------------------------------------------
MPI_ABORT was invoked on rank 3 in communicator MPI COMMUNICATOR 3 DUP FROM 0
with errorcode -1.

NOTE: invoking MPI_ABORT causes Open MPI to kill all MPI processes.
You may or may not see output from other processes, depending on
exactly when Open MPI kills them.
--------------------------------------------------------------------------
--------------------------------------------------------------------------
MPI_ABORT was invoked on rank 4 in communicator MPI COMMUNICATOR 3 DUP FROM 0
with errorcode -1.

NOTE: invoking MPI_ABORT causes Open MPI to kill all MPI processes.
You may or may not see output from other processes, depending on
exactly when Open MPI kills them.
--------------------------------------------------------------------------
--------------------------------------------------------------------------
MPI_ABORT was invoked on rank 5 in communicator MPI COMMUNICATOR 3 DUP FROM 0
with errorcode -1.

NOTE: invoking MPI_ABORT causes Open MPI to kill all MPI processes.
You may or may not see output from other processes, depending on
exactly when Open MPI kills them.
--------------------------------------------------------------------------
slurmstepd: error: *** STEP 6619389.77 ON nova21-swift-4 CANCELLED AT 2025-07-10T09:26:34 ***
srun: Job step aborted: Waiting up to 32 seconds for job step to finish.
slurmstepd: error: --task-epilog failed status=9
srun: error: nova21-swift-4: tasks 0-7: Killed
