export TMOUT=5400
export TMPDIR=/tmp
export PTMPDIR=/tmp/ptmp
 argument  1 = inputs/ASP_GLU_0.nw



============================== echo of input deck ==============================
start ASP_GLU_0
geometry
H          0.66500        2.39300       -5.24800
C          0.11700        2.26700       -4.31400
H          0.68900        1.63900       -3.63500
H         -0.85600        1.82900       -4.51800
C         -0.07200        3.62700       -3.69100
O         -1.20100        4.09000       -3.54700
N          1.03400        4.25100       -3.29600
H          1.91800        3.75700       -3.36800
C          1.08200        5.56900       -2.65200
H          0.43800        5.53300       -1.77300
C          2.51600        5.86500       -2.16800
H          3.15100        6.02800       -3.04100
H          2.50500        6.79300       -1.59200
C          3.14200        4.74800       -1.31800
O          3.42400        3.66500       -1.88200
O          3.36300        4.99600       -0.11000
C          0.56400        6.72200       -3.53900
O          0.22400        7.78800       -3.02100
N          0.45500        6.53200       -4.86000
H          0.77000        5.64200       -5.25400
C         -0.21200        7.47200       -5.77100
H          0.09900        8.47600       -5.48500
C          0.26200        7.24700       -7.22400
H         -0.02700        8.13800       -7.78200
H          1.35300        7.20800       -7.25300
C         -0.32000        6.03900       -7.99000
H         -1.38000        5.91900       -7.75900
H         -0.26000        6.28200       -9.05500
C          0.40900        4.70200       -7.77200
O          1.05500        4.53100       -6.71300
O          0.31000        3.84700       -8.68200
C         -1.75100        7.45500       -5.66000
O         -2.43000        8.33300       -6.19200
N         -2.34100        6.48100       -4.97600
H         -1.77400        5.76300       -4.53900
H         -3.34100        6.47300       -4.90300
end

basis
 * library aug-cc-pvdz
end

echo

scf
 direct
end

task scf energy
================================================================================


                                         
                                         


             Northwest Computational Chemistry Package (NWChem) 7.2.0
             --------------------------------------------------------


                    Environmental Molecular Sciences Laboratory
                       Pacific Northwest National Laboratory
                                Richland, WA 99352

                              Copyright (c) 1994-2022
                       Pacific Northwest National Laboratory
                            Battelle Memorial Institute

             NWChem is an open-source computational chemistry package
                        distributed under the terms of the
                      Educational Community License (ECL) 2.0
             A copy of the license is included with this distribution
                              in the LICENSE.TXT file

                                  ACKNOWLEDGMENT
                                  --------------

            This software and its documentation were developed at the
            EMSL at Pacific Northwest National Laboratory, a multiprogram
            national laboratory, operated for the U.S. Department of Energy
            by Battelle under Contract Number DE-AC05-76RL01830. Support
            for this work was provided by the Department of Energy Office
            of Biological and Environmental Research, Office of Basic
            Energy Sciences, and the Office of Advanced Scientific Computing.


           Job information
           ---------------

    hostname        = nova21-swift-1
    program         = /opt/rit/el9/20230413/app/linux-rhel9-x86_64_v3/gcc-11.2.1/nwchem-7.2.0-oxtctbuhfuzyfaoziquq6bki22grib3g/bin/nwchem
    date            = Fri Jul 11 03:00:06 2025

    compiled        = Wed_May_17_23:46:39_2023
    source          = /tmp/root/spack-stage/spack-stage-nwchem-7.2.0-oxtctbuhfuzyfaoziquq6bki22grib3g/spack-src
    nwchem branch   = 7.2.0
    nwchem revision = d0d141fd
    ga revision     = 5.8.0
    use scalapack   = T
    input           = inputs/ASP_GLU_0.nw
    prefix          = ASP_GLU_0.
    data base       = ./ASP_GLU_0.db
    status          = startup
    nproc           =        8
    time left       =     -1s



           Memory information
           ------------------

    heap     =   26214396 doubles =    200.0 Mbytes
    stack    =   26214401 doubles =    200.0 Mbytes
    global   =   52428800 doubles =    400.0 Mbytes (distinct from heap & stack)
    total    =  104857597 doubles =    800.0 Mbytes
    verify   = yes
    hardfail = no 


           Directory information
           ---------------------

  0 permanent = .
  0 scratch   = .




                                NWChem Input Module
                                -------------------



 Scaling coordinates for geometry "geometry" by  1.889725989
 (inverse scale =  0.529177249)

 C1  symmetry detected

          ------
          auto-z
          ------
  no constraints, skipping    0.0000000000000000     
  no constraints, skipping    0.0000000000000000     


                             Geometry "geometry" -> ""
                             -------------------------

 Output coordinates in angstroms (scale by  1.889725989 to convert to a.u.)

  No.       Tag          Charge          X              Y              Z
 ---- ---------------- ---------- -------------- -------------- --------------
    1 H                    1.0000    -3.03524633     0.35564759    -0.95444387
    2 C                    6.0000    -2.58723893     0.87969503    -1.79895535
    3 H                    1.0000    -2.98442700     1.89043906    -1.85593904
    4 H                    1.0000    -2.78872487     0.33327206    -2.71602370
    5 C                    6.0000    -1.09723880     0.94427730    -1.57719251
    6 O                    8.0000    -0.33153015     0.37180115    -2.34901329
    7 N                    7.0000    -0.68878074     1.66692069    -0.53816145
    8 H                    1.0000    -1.38333516     2.18277111    -0.00696611
    9 C                    6.0000     0.71020189     1.87952615    -0.14853274
   10 H                    1.0000     1.23739941     2.28644214    -1.01175643
   11 C                    6.0000     0.78731877     2.92628883     0.98132074
   12 H                    1.0000     0.37413949     2.48684433     1.89131767
   13 H                    1.0000     1.83797364     3.15417725     1.17438089
   14 C                    6.0000     0.03062292     4.23178006     0.68948338
   15 O                    8.0000    -1.22113285     4.19098980     0.64529466
   16 O                    8.0000     0.71098632     5.27326653     0.54109009
   17 C                    6.0000     1.45239733     0.58887894     0.26119608
   18 O                    8.0000     2.68518364     0.56689181     0.26706823
   19 N                    7.0000     0.74214502    -0.50397817     0.56816020
   20 H                    1.0000    -0.27873333    -0.43821507     0.57476512
   21 C                    6.0000     1.33144526    -1.83452553     0.77009817
   22 H                    1.0000     2.23353469    -1.70211187     1.36611350
   23 C                    6.0000     0.37572704    -2.73208497     1.58710475
   24 H                    1.0000     0.97478754    -3.56830333     1.94853435
   25 H                    1.0000     0.03429312    -2.19408589     2.47402237
   26 C                    6.0000    -0.83760007    -3.34364635     0.85322874
   27 H                    1.0000    -0.55278280    -3.65854648    -0.15229502
   28 H                    1.0000    -1.11032678    -4.25260576     1.39755119
   29 C                    6.0000    -2.08685782    -2.44908421     0.77807793
   30 O                    8.0000    -1.94607662    -1.20667466     0.84617478
   31 O                    8.0000    -3.19092851    -3.02635132     0.64878520
   32 C                    6.0000     1.78189803    -2.51710647    -0.53845315
   33 O                    8.0000     2.48672150    -3.52579745    -0.51170608
   34 N                    7.0000     1.40456430    -2.00023814    -1.70254008
   35 H                    1.0000     0.82585615    -1.16782557    -1.71550836
   36 H                    1.0000     1.70025179    -2.44382979    -2.55176818

      Atomic Mass 
      ----------- 

      H                  1.007825
      C                 12.000000
      O                 15.994910
      N                 14.003070


 Effective nuclear repulsion energy (a.u.)    1807.8124875323

            Nuclear Dipole moment (a.u.) 
            ----------------------------
        X                 Y               Z
 ---------------- ---------------- ----------------
    -0.0000000000    -0.0000000000    -0.0000000000



                                Z-matrix (autoz)
                                -------- 

 Units are Angstrom for bonds and degrees for angles

      Type          Name      I     J     K     L     M      Value
      ----------- --------  ----- ----- ----- ----- ----- ----------
    1 Stretch                  1     2                       1.09020
    2 Stretch                  2     3                       1.08748
    3 Stretch                  2     4                       1.08637
    4 Stretch                  2     5                       1.50780
    5 Stretch                  5     6                       1.22872
    6 Stretch                  5     7                       1.32990
    7 Stretch                  7     8                       1.01522
    8 Stretch                  7     9                       1.46771
    9 Stretch                  9    10                       1.09026
   10 Stretch                  9    11                       1.54215
   11 Stretch                  9    17                       1.54418
   12 Stretch                 11    12                       1.09175
   13 Stretch                 11    13                       1.09228
   14 Stretch                 11    14                       1.53690
   15 Stretch                 14    15                       1.25320
   16 Stretch                 14    16                       1.25284
   17 Stretch                 17    18                       1.23300
   18 Stretch                 17    19                       1.33904
   19 Stretch                 19    20                       1.02302
   20 Stretch                 19    21                       1.46915
   21 Stretch                 21    22                       1.08928
   22 Stretch                 21    23                       1.54483
   23 Stretch                 21    32                       1.54309
   24 Stretch                 23    24                       1.09031
   25 Stretch                 23    25                       1.09208
   26 Stretch                 23    26                       1.54426
   27 Stretch                 26    27                       1.09149
   28 Stretch                 26    28                       1.09402
   29 Stretch                 26    29                       1.53835
   30 Stretch                 29    30                       1.25221
   31 Stretch                 29    31                       1.25257
   32 Stretch                 32    33                       1.23083
   33 Stretch                 32    34                       1.32839
   34 Stretch                 34    35                       1.01389
   35 Stretch                 34    36                       1.00269
   36 Bend                     1     2     3               109.71070
   37 Bend                     1     2     4               109.62887
   38 Bend                     1     2     5               108.22488
   39 Bend                     2     5     6               120.23043
   40 Bend                     2     5     7               116.21193
   41 Bend                     3     2     4               110.82517
   42 Bend                     3     2     5               109.19740
   43 Bend                     4     2     5               109.20688
   44 Bend                     5     7     8               118.34436
   45 Bend                     5     7     9               125.37113
   46 Bend                     6     5     7               123.54109
   47 Bend                     7     9    10               107.74535
   48 Bend                     7     9    11               109.90626
   49 Bend                     7     9    17               114.04790
   50 Bend                     8     7     9               116.07847
   51 Bend                     9    11    12               108.57456
   52 Bend                     9    11    13               108.61517
   53 Bend                     9    11    14               114.38247
   54 Bend                     9    17    18               119.78361
   55 Bend                     9    17    19               119.21149
   56 Bend                    10     9    11               107.61168
   57 Bend                    10     9    17               106.83502
   58 Bend                    11     9    17               110.41939
   59 Bend                    11    14    15               118.08832
   60 Bend                    11    14    16               117.46769
   61 Bend                    12    11    13               107.49883
   62 Bend                    12    11    14               108.29131
   63 Bend                    13    11    14               109.26447
   64 Bend                    15    14    16               124.42400
   65 Bend                    17    19    20               118.57618
   66 Bend                    17    19    21               123.91086
   67 Bend                    18    17    19               120.97633
   68 Bend                    19    21    22               107.29557
   69 Bend                    19    21    23               110.53223
   70 Bend                    19    21    32               113.64982
   71 Bend                    20    19    21               117.23293
   72 Bend                    21    23    24               106.32037
   73 Bend                    21    23    25               109.67611
   74 Bend                    21    23    26               117.69974
   75 Bend                    21    32    33               120.74686
   76 Bend                    21    32    34               119.21475
   77 Bend                    22    21    23               107.07312
   78 Bend                    22    21    32               106.02281
   79 Bend                    23    21    32               111.84324
   80 Bend                    23    26    27               110.30563
   81 Bend                    23    26    28               106.76534
   82 Bend                    23    26    29               115.52936
   83 Bend                    24    23    25               106.28372
   84 Bend                    24    23    26               106.58877
   85 Bend                    25    23    26               109.59676
   86 Bend                    26    29    30               118.88142
   87 Bend                    26    29    31               116.92637
   88 Bend                    27    26    28               106.48140
   89 Bend                    27    26    29               109.55231
   90 Bend                    28    26    29               107.75853
   91 Bend                    30    29    31               124.19211
   92 Bend                    32    34    35               119.52388
   93 Bend                    32    34    36               119.09700
   94 Bend                    33    32    34               120.03781
   95 Bend                    35    34    36               121.37912
   96 Torsion                  1     2     5     6         116.11673
   97 Torsion                  1     2     5     7         -65.31110
   98 Torsion                  2     5     7     8          -4.61183
   99 Torsion                  2     5     7     9        -179.17617
  100 Torsion                  3     2     5     6        -124.50081
  101 Torsion                  3     2     5     7          54.07136
  102 Torsion                  4     2     5     6          -3.17263
  103 Torsion                  4     2     5     7         175.39954
  104 Torsion                  5     7     9    10          55.15766
  105 Torsion                  5     7     9    11         172.14213
  106 Torsion                  5     7     9    17         -63.25290
  107 Torsion                  6     5     7     8         173.90805
  108 Torsion                  6     5     7     9          -0.65629
  109 Torsion                  7     9    11    12          69.90479
  110 Torsion                  7     9    11    13        -173.48547
  111 Torsion                  7     9    11    14         -51.14810
  112 Torsion                  7     9    17    18         160.97376
  113 Torsion                  7     9    17    19         -17.10156
  114 Torsion                  8     7     9    10        -119.51643
  115 Torsion                  8     7     9    11          -2.53196
  116 Torsion                  8     7     9    17         122.07302
  117 Torsion                  9    11    14    15          68.67237
  118 Torsion                  9    11    14    16        -112.88133
  119 Torsion                  9    17    19    20          -3.47236
  120 Torsion                  9    17    19    21         170.27149
  121 Torsion                 10     9    11    12        -173.02722
  122 Torsion                 10     9    11    13         -56.41748
  123 Torsion                 10     9    11    14          65.91989
  124 Torsion                 10     9    17    18          42.04497
  125 Torsion                 10     9    17    19        -136.03035
  126 Torsion                 11     9    17    18         -74.69575
  127 Torsion                 11     9    17    19         107.22893
  128 Torsion                 12    11     9    17         -56.76941
  129 Torsion                 12    11    14    15         -52.53683
  130 Torsion                 12    11    14    16         125.90947
  131 Torsion                 13    11     9    17          59.84033
  132 Torsion                 13    11    14    15        -169.34463
  133 Torsion                 13    11    14    16           9.10167
  134 Torsion                 14    11     9    17        -177.82230
  135 Torsion                 17    19    21    22          43.06351
  136 Torsion                 17    19    21    23         159.48522
  137 Torsion                 17    19    21    32         -73.80591
  138 Torsion                 18    17    19    20         178.47596
  139 Torsion                 18    17    19    21          -7.78019
  140 Torsion                 19    21    23    24        -163.55978
  141 Torsion                 19    21    23    25         -49.04134
  142 Torsion                 19    21    23    26          77.11810
  143 Torsion                 19    21    32    33         167.91258
  144 Torsion                 19    21    32    34         -11.81159
  145 Torsion                 20    19    21    22        -143.11514
  146 Torsion                 20    19    21    23         -26.69343
  147 Torsion                 20    19    21    32         100.01544
  148 Torsion                 21    23    26    27          39.32672
  149 Torsion                 21    23    26    28         154.62967
  150 Torsion                 21    23    26    29         -85.57556
  151 Torsion                 21    32    34    35          -0.12408
  152 Torsion                 21    32    34    36         179.84245
  153 Torsion                 22    21    23    24         -47.00003
  154 Torsion                 22    21    23    25          67.51841
  155 Torsion                 22    21    23    26        -166.32215
  156 Torsion                 22    21    32    33          50.30332
  157 Torsion                 22    21    32    34        -129.42085
  158 Torsion                 23    21    32    33         -66.06877
  159 Torsion                 23    21    32    34         114.20706
  160 Torsion                 23    26    29    30          25.14427
  161 Torsion                 23    26    29    31        -154.96566
  162 Torsion                 24    23    21    32          68.73369
  163 Torsion                 24    23    26    27         -79.85386
  164 Torsion                 24    23    26    28          35.44909
  165 Torsion                 24    23    26    29         155.24386
  166 Torsion                 25    23    21    32        -176.74786
  167 Torsion                 25    23    26    27         165.52487
  168 Torsion                 25    23    26    28         -79.17218
  169 Torsion                 25    23    26    29          40.62259
  170 Torsion                 26    23    21    32         -50.58843
  171 Torsion                 27    26    29    30        -100.14669
  172 Torsion                 27    26    29    31          79.74338
  173 Torsion                 28    26    29    30         144.39404
  174 Torsion                 28    26    29    31         -35.71589
  175 Torsion                 33    32    34    35        -179.85025
  176 Torsion                 33    32    34    36           0.11628


            XYZ format geometry
            -------------------
    36
 geometry
 H                    -3.03524633     0.35564759    -0.95444387
 C                    -2.58723893     0.87969503    -1.79895535
 H                    -2.98442700     1.89043906    -1.85593904
 H                    -2.78872487     0.33327206    -2.71602370
 C                    -1.09723880     0.94427730    -1.57719251
 O                    -0.33153015     0.37180115    -2.34901329
 N                    -0.68878074     1.66692069    -0.53816145
 H                    -1.38333516     2.18277111    -0.00696611
 C                     0.71020189     1.87952615    -0.14853274
 H                     1.23739941     2.28644214    -1.01175643
 C                     0.78731877     2.92628883     0.98132074
 H                     0.37413949     2.48684433     1.89131767
 H                     1.83797364     3.15417725     1.17438089
 C                     0.03062292     4.23178006     0.68948338
 O                    -1.22113285     4.19098980     0.64529466
 O                     0.71098632     5.27326653     0.54109009
 C                     1.45239733     0.58887894     0.26119608
 O                     2.68518364     0.56689181     0.26706823
 N                     0.74214502    -0.50397817     0.56816020
 H                    -0.27873333    -0.43821507     0.57476512
 C                     1.33144526    -1.83452553     0.77009817
 H                     2.23353469    -1.70211187     1.36611350
 C                     0.37572704    -2.73208497     1.58710475
 H                     0.97478754    -3.56830333     1.94853435
 H                     0.03429312    -2.19408589     2.47402237
 C                    -0.83760007    -3.34364635     0.85322874
 H                    -0.55278280    -3.65854648    -0.15229502
 H                    -1.11032678    -4.25260576     1.39755119
 C                    -2.08685782    -2.44908421     0.77807793
 O                    -1.94607662    -1.20667466     0.84617478
 O                    -3.19092851    -3.02635132     0.64878520
 C                     1.78189803    -2.51710647    -0.53845315
 O                     2.48672150    -3.52579745    -0.51170608
 N                     1.40456430    -2.00023814    -1.70254008
 H                     0.82585615    -1.16782557    -1.71550836
 H                     1.70025179    -2.44382979    -2.55176818

 ==============================================================================
                                internuclear distances
 ------------------------------------------------------------------------------
       center one      |      center two      | atomic units |  angstroms
 ------------------------------------------------------------------------------
    2 C                |   1 H                |     2.06018  |     1.09020
    3 H                |   2 C                |     2.05504  |     1.08748
    4 H                |   2 C                |     2.05293  |     1.08637
    5 C                |   2 C                |     2.84932  |     1.50780
    6 O                |   5 C                |     2.32194  |     1.22872
    7 N                |   5 C                |     2.51315  |     1.32990
    8 H                |   7 N                |     1.91849  |     1.01522
    9 C                |   7 N                |     2.77356  |     1.46771
   10 H                |   9 C                |     2.06030  |     1.09026
   11 C                |   9 C                |     2.91424  |     1.54215
   12 H                |  11 C                |     2.06311  |     1.09175
   13 H                |  11 C                |     2.06411  |     1.09228
   14 C                |  11 C                |     2.90432  |     1.53690
   15 O                |  14 C                |     2.36820  |     1.25320
   16 O                |  14 C                |     2.36753  |     1.25284
   17 C                |   9 C                |     2.91808  |     1.54418
   18 O                |  17 C                |     2.33003  |     1.23300
   19 N                |  17 C                |     2.53041  |     1.33904
   20 H                |  19 N                |     1.93322  |     1.02302
   21 C                |  19 N                |     2.77630  |     1.46915
   22 H                |  21 C                |     2.05844  |     1.08928
   23 C                |  21 C                |     2.91931  |     1.54483
   24 H                |  23 C                |     2.06038  |     1.09031
   25 H                |  23 C                |     2.06374  |     1.09208
   26 C                |  23 C                |     2.91823  |     1.54426
   27 H                |  26 C                |     2.06263  |     1.09149
   28 H                |  26 C                |     2.06739  |     1.09402
   29 C                |  26 C                |     2.90707  |     1.53835
   30 O                |  29 C                |     2.36634  |     1.25221
   31 O                |  29 C                |     2.36701  |     1.25257
   32 C                |  21 C                |     2.91602  |     1.54309
   33 O                |  32 C                |     2.32594  |     1.23083
   34 N                |  32 C                |     2.51030  |     1.32839
   35 H                |  34 N                |     1.91598  |     1.01389
   36 H                |  34 N                |     1.89481  |     1.00269
 ------------------------------------------------------------------------------
                         number of included internuclear distances:         35
 ==============================================================================



 ==============================================================================
                                 internuclear angles
 ------------------------------------------------------------------------------
        center 1       |       center 2       |       center 3       |  degrees
 ------------------------------------------------------------------------------
    1 H                |   2 C                |   3 H                |   109.71
    1 H                |   2 C                |   4 H                |   109.63
    1 H                |   2 C                |   5 C                |   108.22
    3 H                |   2 C                |   4 H                |   110.83
    3 H                |   2 C                |   5 C                |   109.20
    4 H                |   2 C                |   5 C                |   109.21
    2 C                |   5 C                |   6 O                |   120.23
    2 C                |   5 C                |   7 N                |   116.21
    6 O                |   5 C                |   7 N                |   123.54
    5 C                |   7 N                |   8 H                |   118.34
    5 C                |   7 N                |   9 C                |   125.37
    8 H                |   7 N                |   9 C                |   116.08
    7 N                |   9 C                |  10 H                |   107.75
    7 N                |   9 C                |  11 C                |   109.91
    7 N                |   9 C                |  17 C                |   114.05
   10 H                |   9 C                |  11 C                |   107.61
   10 H                |   9 C                |  17 C                |   106.84
   11 C                |   9 C                |  17 C                |   110.42
    9 C                |  11 C                |  12 H                |   108.57
    9 C                |  11 C                |  13 H                |   108.62
    9 C                |  11 C                |  14 C                |   114.38
   12 H                |  11 C                |  13 H                |   107.50
   12 H                |  11 C                |  14 C                |   108.29
   13 H                |  11 C                |  14 C                |   109.26
   11 C                |  14 C                |  15 O                |   118.09
   11 C                |  14 C                |  16 O                |   117.47
   15 O                |  14 C                |  16 O                |   124.42
    9 C                |  17 C                |  18 O                |   119.78
    9 C                |  17 C                |  19 N                |   119.21
   18 O                |  17 C                |  19 N                |   120.98
   17 C                |  19 N                |  20 H                |   118.58
   17 C                |  19 N                |  21 C                |   123.91
   20 H                |  19 N                |  21 C                |   117.23
   19 N                |  21 C                |  22 H                |   107.30
   19 N                |  21 C                |  23 C                |   110.53
   19 N                |  21 C                |  32 C                |   113.65
   22 H                |  21 C                |  23 C                |   107.07
   22 H                |  21 C                |  32 C                |   106.02
   23 C                |  21 C                |  32 C                |   111.84
   21 C                |  23 C                |  24 H                |   106.32
   21 C                |  23 C                |  25 H                |   109.68
   21 C                |  23 C                |  26 C                |   117.70
   24 H                |  23 C                |  25 H                |   106.28
   24 H                |  23 C                |  26 C                |   106.59
   25 H                |  23 C                |  26 C                |   109.60
   23 C                |  26 C                |  27 H                |   110.31
   23 C                |  26 C                |  28 H                |   106.77
   23 C                |  26 C                |  29 C                |   115.53
   27 H                |  26 C                |  28 H                |   106.48
   27 H                |  26 C                |  29 C                |   109.55
   28 H                |  26 C                |  29 C                |   107.76
   26 C                |  29 C                |  30 O                |   118.88
   26 C                |  29 C                |  31 O                |   116.93
   30 O                |  29 C                |  31 O                |   124.19
   21 C                |  32 C                |  33 O                |   120.75
   21 C                |  32 C                |  34 N                |   119.21
   33 O                |  32 C                |  34 N                |   120.04
   32 C                |  34 N                |  35 H                |   119.52
   32 C                |  34 N                |  36 H                |   119.10
   35 H                |  34 N                |  36 H                |   121.38
 ------------------------------------------------------------------------------
                            number of included internuclear angles:         60
 ==============================================================================



  library name resolved from: environment
  library file name is: </opt/rit/el9/20230413/app/linux-rhel9-x86_64_v3/gcc-11.2.1/nwchem-7.2.0-oxtctbuhfuzyfaoziquq6bki22grib3g/share/nwchem/libraries/>
  


 Summary of "ao basis" -> "" (cartesian)
 ------------------------------------------------------------------------------
       Tag                 Description            Shells   Functions and Types
 ---------------- ------------------------------  ------  ---------------------
 *                        aug-cc-pvdz                 on all atoms 


                      Basis "ao basis" -> "ao basis" (cartesian)
                      -----
  H (Hydrogen)
  ------------
            Exponent  Coefficients 
       -------------- ---------------------------------------------------------
  1 S  1.30100000E+01  0.019685
  1 S  1.96200000E+00  0.137977
  1 S  4.44600000E-01  0.478148

  2 S  1.22000000E-01  1.000000

  3 S  2.97400000E-02  1.000000

  4 P  7.27000000E-01  1.000000

  5 P  1.41000000E-01  1.000000

  C (Carbon)
  ----------
            Exponent  Coefficients 
       -------------- ---------------------------------------------------------
  1 S  6.66500000E+03  0.000692
  1 S  1.00000000E+03  0.005329
  1 S  2.28000000E+02  0.027077
  1 S  6.47100000E+01  0.101718
  1 S  2.10600000E+01  0.274740
  1 S  7.49500000E+00  0.448564
  1 S  2.79700000E+00  0.285074
  1 S  5.21500000E-01  0.015204

  2 S  6.66500000E+03 -0.000146
  2 S  1.00000000E+03 -0.001154
  2 S  2.28000000E+02 -0.005725
  2 S  6.47100000E+01 -0.023312
  2 S  2.10600000E+01 -0.063955
  2 S  7.49500000E+00 -0.149981
  2 S  2.79700000E+00 -0.127262
  2 S  5.21500000E-01  0.544529

  3 S  1.59600000E-01  1.000000

  4 S  4.69000000E-02  1.000000

  5 P  9.43900000E+00  0.038109
  5 P  2.00200000E+00  0.209480
  5 P  5.45600000E-01  0.508557

  6 P  1.51700000E-01  1.000000

  7 P  4.04100000E-02  1.000000

  8 D  5.50000000E-01  1.000000

  9 D  1.51000000E-01  1.000000

  O (Oxygen)
  ----------
            Exponent  Coefficients 
       -------------- ---------------------------------------------------------
  1 S  1.17200000E+04  0.000710
  1 S  1.75900000E+03  0.005470
  1 S  4.00800000E+02  0.027837
  1 S  1.13700000E+02  0.104800
  1 S  3.70300000E+01  0.283062
  1 S  1.32700000E+01  0.448719
  1 S  5.02500000E+00  0.270952
  1 S  1.01300000E+00  0.015458

  2 S  1.17200000E+04 -0.000160
  2 S  1.75900000E+03 -0.001263
  2 S  4.00800000E+02 -0.006267
  2 S  1.13700000E+02 -0.025716
  2 S  3.70300000E+01 -0.070924
  2 S  1.32700000E+01 -0.165411
  2 S  5.02500000E+00 -0.116955
  2 S  1.01300000E+00  0.557368

  3 S  3.02300000E-01  1.000000

  4 S  7.89600000E-02  1.000000

  5 P  1.77000000E+01  0.043018
  5 P  3.85400000E+00  0.228913
  5 P  1.04600000E+00  0.508728

  6 P  2.75300000E-01  1.000000

  7 P  6.85600000E-02  1.000000

  8 D  1.18500000E+00  1.000000

  9 D  3.32000000E-01  1.000000

  N (Nitrogen)
  ------------
            Exponent  Coefficients 
       -------------- ---------------------------------------------------------
  1 S  9.04600000E+03  0.000700
  1 S  1.35700000E+03  0.005389
  1 S  3.09300000E+02  0.027406
  1 S  8.77300000E+01  0.103207
  1 S  2.85600000E+01  0.278723
  1 S  1.02100000E+01  0.448540
  1 S  3.83800000E+00  0.278238
  1 S  7.46600000E-01  0.015440

  2 S  9.04600000E+03 -0.000153
  2 S  1.35700000E+03 -0.001208
  2 S  3.09300000E+02 -0.005992
  2 S  8.77300000E+01 -0.024544
  2 S  2.85600000E+01 -0.067459
  2 S  1.02100000E+01 -0.158078
  2 S  3.83800000E+00 -0.121831
  2 S  7.46600000E-01  0.549003

  3 S  2.24800000E-01  1.000000

  4 S  6.12400000E-02  1.000000

  5 P  1.35500000E+01  0.039919
  5 P  2.91700000E+00  0.217169
  5 P  7.97300000E-01  0.510319

  6 P  2.18500000E-01  1.000000

  7 P  5.61100000E-02  1.000000

  8 D  8.17000000E-01  1.000000

  9 D  2.30000000E-01  1.000000



 Summary of "ao basis" -> "ao basis" (cartesian)
 ------------------------------------------------------------------------------
       Tag                 Description            Shells   Functions and Types
 ---------------- ------------------------------  ------  ---------------------
 H                        aug-cc-pvdz                5        9   3s2p
 C                        aug-cc-pvdz                9       25   4s3p2d
 O                        aug-cc-pvdz                9       25   4s3p2d
 N                        aug-cc-pvdz                9       25   4s3p2d


                                 NWChem SCF Module
                                 -----------------



  ao basis        = "ao basis"
  functions       =   660
  atoms           =    36
  closed shells   =    79
  open shells     =     0
  charge          =   0.00
  wavefunction    = RHF 
  input vectors   = atomic
  output vectors  = ./ASP_GLU_0.movecs
  use symmetry    = F
  symmetry adapt  = F


 Summary of "ao basis" -> "ao basis" (cartesian)
 ------------------------------------------------------------------------------
       Tag                 Description            Shells   Functions and Types
 ---------------- ------------------------------  ------  ---------------------
 H                        aug-cc-pvdz                5        9   3s2p
 C                        aug-cc-pvdz                9       25   4s3p2d
 O                        aug-cc-pvdz                9       25   4s3p2d
 N                        aug-cc-pvdz                9       25   4s3p2d



 Forming initial guess at       0.7s


 !! The overlap matrix has   5 vectors deemed linearly dependent with
    eigenvalues:
 2.75D-06 3.56D-06 6.13D-06 8.10D-06 9.56D-06


      Superposition of Atomic Density Guess
      -------------------------------------

 Sum of atomic energies:       -1108.10309820

      Non-variational initial energy
      ------------------------------

 Total energy =   -1120.020856
 1-e energy   =   -5108.352319
 2-e energy   =    2180.518976
 HOMO         =      -0.311657
 LUMO         =      -0.306236


 Starting SCF solution at     274.2s



 ----------------------------------------------
         Quadratically convergent ROHF

 Convergence threshold     :          1.000E-04
 Maximum no. of iterations :           30
 Final Fock-matrix accuracy:          1.000E-10
 ----------------------------------------------


              iter       energy          gnorm     gmax       time
             ----- ------------------- --------- --------- --------
                 1    -1111.7507833452  3.50D+00  2.36D-01    565.4
  Setting level-shift to   2.76 to force positive preconditioner
                 2    -1112.4123571547  1.14D+00  9.06D-02    857.8
                 3    -1112.5175708093  1.67D-01  1.84D-02   1969.3
  ga_iter_lsolve: convergence stagnant ... aborting solve

 Disabled NR: increased maxiter to  40

                 4    -1112.5201712600  9.39D-02  2.30D-02   3916.6
                 5    -1112.5249920000  1.40D-01  1.69D-02   4502.8
                 6    -1112.5264685273  9.89D-02  1.26D-02   5087.7
                 7    -1112.5280499502  8.74D-02  1.42D-02   5672.1
                 8    -1112.5289988755  8.99D-02  1.43D-02   5966.1
                 9    -1112.5296905156  6.81D-02  1.02D-02   6550.4
                10    -1112.5302519861  5.65D-02  9.68D-03   6842.7
                11    -1112.5306280942  6.54D-02  9.96D-03   7134.9
                12    -1112.5310367663  5.98D-02  6.85D-03   7715.9
                13    -1112.5315474454  3.81D-02  4.77D-03   8008.5
                14    -1112.5317380729  3.89D-02  7.16D-03   8300.6
                15    -1112.5318762725  2.66D-02  2.51D-03   8884.9
                16    -1112.5319492563  2.09D-02  3.14D-03   9177.0
                17    -1112.5320001988  1.38D-02  1.99D-03   9469.2
                18    -1112.5320246043  1.24D-02  1.98D-03   9761.3
                19    -1112.5320448529  1.28D-02  1.93D-03  10342.3
                20    -1112.5320660865  1.08D-02  1.33D-03  10634.4
                21    -1112.5320825340  9.89D-03  1.12D-03  11219.0
                22    -1112.5320954162  9.20D-03  8.33D-04  11803.3
                23    -1112.5321070228  7.85D-03  1.22D-03  12387.3
                24    -1112.5321148275  6.74D-03  1.37D-03  12679.1
                25    -1112.5321200433  6.51D-03  6.92D-04  13260.7
                26    -1112.5321258488  5.88D-03  5.18D-04  13551.5
                27    -1112.5321296935  3.91D-03  4.35D-04  13842.4
                28    -1112.5321319756  3.16D-03  4.98D-04  14424.1
                29    -1112.5321329373  3.10D-03  3.84D-04  15005.7
                30    -1112.5321336055  2.37D-03  2.45D-04  15587.4
                31    -1112.5321342295  1.62D-03  1.97D-04  15878.3
                32    -1112.5321346377  1.60D-03  1.89D-04  16460.3
                33    -1112.5321349473  1.56D-03  2.75D-04  16751.2
                34    -1112.5321352700  1.92D-03  2.25D-04  17038.8
                35    -1112.5321356891  1.76D-03  1.49D-04  17329.7
                36    -1112.5321359872  1.12D-03  9.48D-05  17620.5
                37    -1112.5321361503  7.73D-04  9.30D-05  17913.0
                38    -1112.5321362167  5.97D-04  1.00D-04  18204.0
                39    -1112.5321362557  5.49D-04  7.96D-05  18784.3
                40    -1112.5321362864  4.63D-04  4.15D-05  19076.3

      Calculation failed to converge
      ------------------------------



       Final RHF  results 
       ------------------ 

         Total SCF energy =  -1112.532136286394
      One-electron energy =  -5116.247235936986
      Two-electron energy =   2195.902612118276
 Nuclear repulsion energy =   1807.812487532316

        Time for solution =  18803.2s


             Final eigenvalues
             -----------------

              1      
    1  -20.6513
    2  -20.6495
    3  -20.6039
    4  -20.6035
    5  -20.6019
    6  -20.5965
    7  -20.5405
    8  -15.6849
    9  -15.6693
   10  -15.6037
   11  -11.4356
   12  -11.4320
   13  -11.4126
   14  -11.3962
   15  -11.3797
   16  -11.3780
   17  -11.3357
   18  -11.3286
   19  -11.2824
   20  -11.2784
   21  -11.2695
   22   -1.4942
   23   -1.4573
   24   -1.4550
   25   -1.4470
   26   -1.3982
   27   -1.3861
   28   -1.3484
   29   -1.3226
   30   -1.2979
   31   -1.2296
   32   -1.1401
   33   -1.1107
   34   -1.0429
   35   -1.0242
   36   -0.9733
   37   -0.9022
   38   -0.8825
   39   -0.8592
   40   -0.8239
   41   -0.8185
   42   -0.7810
   43   -0.7702
   44   -0.7589
   45   -0.7519
   46   -0.7270
   47   -0.7253
   48   -0.7186
   49   -0.7053
   50   -0.6987
   51   -0.6869
   52   -0.6713
   53   -0.6643
   54   -0.6563
   55   -0.6507
   56   -0.6392
   57   -0.6367
   58   -0.6218
   59   -0.6203
   60   -0.6105
   61   -0.5942
   62   -0.5903
   63   -0.5826
   64   -0.5748
   65   -0.5590
   66   -0.5551
   67   -0.5335
   68   -0.5282
   69   -0.5174
   70   -0.5119
   71   -0.4933
   72   -0.4815
   73   -0.4773
   74   -0.4715
   75   -0.4672
   76   -0.4388
   77   -0.4217
   78   -0.4118
   79   -0.3686
   80   -0.2774
   81    0.0235
   82    0.0319
   83    0.0382
   84    0.0417
   85    0.0468
   86    0.0511
   87    0.0546
   88    0.0596
   89    0.0650

                       ROHF Final Molecular Orbital Analysis
                       -------------------------------------

 Vector   22  Occ=2.000000D+00  E=-1.494187D+00
              MO Center= -2.0D-01,  4.5D+00,  6.2D-01, r^2= 1.2D+00
   Bfn.  Coefficient  Atom+Function         Bfn.  Coefficient  Atom+Function  
  ----- ------------  ---------------      ----- ------------  ---------------
   241      0.292496  15 O  s               266      0.277863  16 O  s         
   240      0.274620  15 O  s               265      0.261930  16 O  s         
   215      0.258286  14 C  s               217     -0.226298  14 C  s         

 Vector   23  Occ=2.000000D+00  E=-1.457307D+00
              MO Center= -7.7D-01, -7.9D-01,  7.8D-02, r^2= 7.4D+00
   Bfn.  Coefficient  Atom+Function         Bfn.  Coefficient  Atom+Function  
  ----- ------------  ---------------      ----- ------------  ---------------
   520      0.216102  30 O  s               519      0.203355  30 O  s         
   545      0.191794  31 O  s               316      0.187794  18 O  s         
   494      0.181613  29 C  s               544      0.177101  31 O  s         
   315      0.174667  18 O  s                79      0.154696   6 O  s         
    80      0.150855   6 O  s         

 Vector   24  Occ=2.000000D+00  E=-1.455012D+00
              MO Center= -8.4D-01, -7.4D-01, -5.1D-02, r^2= 7.4D+00
   Bfn.  Coefficient  Atom+Function         Bfn.  Coefficient  Atom+Function  
  ----- ------------  ---------------      ----- ------------  ---------------
   520      0.205755  30 O  s               519      0.195990  30 O  s         
   545      0.194254  31 O  s                80     -0.182983   6 O  s         
   494      0.180871  29 C  s               316     -0.179874  18 O  s         
   544      0.180047  31 O  s                79     -0.175741   6 O  s         
   315     -0.166964  18 O  s         

 Vector   25  Occ=2.000000D+00  E=-1.447002D+00
              MO Center=  7.5D-01,  5.5D-01, -8.5D-01, r^2= 4.1D+00
   Bfn.  Coefficient  Atom+Function         Bfn.  Coefficient  Atom+Function  
  ----- ------------  ---------------      ----- ------------  ---------------
   316     -0.278895  18 O  s                80      0.266729   6 O  s         
    79      0.255923   6 O  s               315     -0.252635  18 O  s         
    54      0.175313   5 C  s               290     -0.170126  17 C  s         
   342      0.157171  19 N  s         

 Vector   26  Occ=2.000000D+00  E=-1.398202D+00
              MO Center=  2.2D+00, -3.0D+00, -6.1D-01, r^2= 1.0D+00
   Bfn.  Coefficient  Atom+Function         Bfn.  Coefficient  Atom+Function  
  ----- ------------  ---------------      ----- ------------  ---------------
   595      0.384245  33 O  s               594      0.348166  33 O  s         
   569      0.248587  32 C  s               571     -0.213305  32 C  s         

 Vector   27  Occ=2.000000D+00  E=-1.386149D+00
              MO Center= -1.5D-01,  4.6D+00,  6.1D-01, r^2= 1.4D+00
   Bfn.  Coefficient  Atom+Function         Bfn.  Coefficient  Atom+Function  
  ----- ------------  ---------------      ----- ------------  ---------------
   266      0.341762  16 O  s               241     -0.323046  15 O  s         
   265      0.315673  16 O  s               240     -0.301422  15 O  s         
   218      0.222379  14 C  px        

 Vector   28  Occ=2.000000D+00  E=-1.348367D+00
              MO Center= -2.4D+00, -2.2D+00,  7.4D-01, r^2= 1.6D+00
   Bfn.  Coefficient  Atom+Function         Bfn.  Coefficient  Atom+Function  
  ----- ------------  ---------------      ----- ------------  ---------------
   545      0.356319  31 O  s               544      0.320876  31 O  s         
   520     -0.308560  30 O  s               519     -0.290500  30 O  s         
   498     -0.204710  29 C  py        

 Vector   29  Occ=2.000000D+00  E=-1.322568D+00
              MO Center= -2.7D-01,  1.2D+00, -6.4D-01, r^2= 2.7D+00
   Bfn.  Coefficient  Atom+Function         Bfn.  Coefficient  Atom+Function  
  ----- ------------  ---------------      ----- ------------  ---------------
   105      0.388144   7 N  s               104      0.315886   7 N  s         
    80     -0.223209   6 O  s                79     -0.183246   6 O  s         

 Vector   30  Occ=2.000000D+00  E=-1.297858D+00
              MO Center=  8.4D-01, -3.0D-01,  2.9D-01, r^2= 3.0D+00
   Bfn.  Coefficient  Atom+Function         Bfn.  Coefficient  Atom+Function  
  ----- ------------  ---------------      ----- ------------  ---------------
   341      0.380613  19 N  s               340      0.325613  19 N  s         
   316     -0.192926  18 O  s               375     -0.169982  21 C  s         
   105     -0.156883   7 N  s               315     -0.153497  18 O  s         

 Vector   31  Occ=2.000000D+00  E=-1.229581D+00
              MO Center=  1.5D+00, -2.1D+00, -1.3D+00, r^2= 1.6D+00
   Bfn.  Coefficient  Atom+Function         Bfn.  Coefficient  Atom+Function  
  ----- ------------  ---------------      ----- ------------  ---------------
   620      0.377132  34 N  s               619      0.367199  34 N  s         
   375     -0.233608  21 C  s               595     -0.220226  33 O  s         
   594     -0.178943  33 O  s               643      0.161797  35 H  s         
   652      0.157381  36 H  s         

 Vector   32  Occ=2.000000D+00  E=-1.140073D+00
              MO Center=  3.5D-01,  1.7D+00,  1.5D-01, r^2= 4.9D+00
   Bfn.  Coefficient  Atom+Function         Bfn.  Coefficient  Atom+Function  
  ----- ------------  ---------------      ----- ------------  ---------------
   138      0.228997   9 C  s               172      0.230063  11 C  s         
   174     -0.172772  11 C  s         

 Vector   33  Occ=2.000000D+00  E=-1.110743D+00
              MO Center=  2.8D-01, -1.9D+00,  9.8D-01, r^2= 5.4D+00
   Bfn.  Coefficient  Atom+Function         Bfn.  Coefficient  Atom+Function  
  ----- ------------  ---------------      ----- ------------  ---------------
   408      0.248084  23 C  s               451      0.197852  26 C  s         
   374      0.171331  21 C  s               381     -0.165483  21 C  py        
   375      0.154152  21 C  s         

 Vector   34  Occ=2.000000D+00  E=-1.042887D+00
              MO Center= -1.4D+00,  1.3D+00, -9.4D-01, r^2= 6.0D+00
   Bfn.  Coefficient  Atom+Function         Bfn.  Coefficient  Atom+Function  
  ----- ------------  ---------------      ----- ------------  ---------------
    11      0.293035   2 C  s               173      0.255350  11 C  s         
   172      0.177738  11 C  s                55      0.168343   5 C  s         
    57     -0.162514   5 C  px        

 Vector   35  Occ=2.000000D+00  E=-1.024203D+00
              MO Center= -7.3D-02, -1.7D+00,  3.9D-01, r^2= 7.0D+00
   Bfn.  Coefficient  Atom+Function         Bfn.  Coefficient  Atom+Function  
  ----- ------------  ---------------      ----- ------------  ---------------
   451      0.235285  26 C  s               374     -0.211631  21 C  s         

 Vector   36  Occ=2.000000D+00  E=-9.733171D-01
              MO Center=  1.7D-01,  1.3D+00,  1.1D-01, r^2= 8.0D+00
   Bfn.  Coefficient  Atom+Function         Bfn.  Coefficient  Atom+Function  
  ----- ------------  ---------------      ----- ------------  ---------------
   173      0.235602  11 C  s               138     -0.211975   9 C  s         
   179      0.194389  11 C  py              145      0.176658   9 C  py        
   172      0.167190  11 C  s               106      0.156015   7 N  s         

 Vector   37  Occ=2.000000D+00  E=-9.021912D-01
              MO Center=  2.1D-01, -2.4D+00,  7.5D-01, r^2= 5.0D+00
   Bfn.  Coefficient  Atom+Function         Bfn.  Coefficient  Atom+Function  
  ----- ------------  ---------------      ----- ------------  ---------------
   408      0.243162  23 C  s               452     -0.230779  26 C  s         
   382      0.221024  21 C  pz              375     -0.184211  21 C  s         
   441      0.158487  25 H  s               571      0.157920  32 C  s         
   432      0.153249  24 H  s         

 Vector   38  Occ=2.000000D+00  E=-8.824927D-01
              MO Center= -3.0D-01,  1.0D+00, -5.4D-01, r^2= 4.7D+00
   Bfn.  Coefficient  Atom+Function         Bfn.  Coefficient  Atom+Function  
  ----- ------------  ---------------      ----- ------------  ---------------
   109      0.258012   7 N  pz              108      0.205999   7 N  py        
   128      0.203377   8 H  s               105      0.195616   7 N  s         
    54     -0.179620   5 C  s                72      0.176096   5 C  dxx       
    12     -0.167733   2 C  s                17     -0.162785   2 C  px        
   291     -0.159435  17 C  s               375     -0.150957  21 C  s         

 Vector   39  Occ=2.000000D+00  E=-8.592421D-01
              MO Center=  5.1D-01,  1.1D-01,  2.2D-01, r^2= 4.3D+00
   Bfn.  Coefficient  Atom+Function         Bfn.  Coefficient  Atom+Function  
  ----- ------------  ---------------      ----- ------------  ---------------
   291      0.289611  17 C  s               365     -0.256496  20 H  s         
   343      0.247397  19 N  px              364     -0.221583  20 H  s         
   344      0.200828  19 N  py              375      0.193640  21 C  s         
   105      0.178169   7 N  s               316     -0.169836  18 O  s         
   290      0.168324  17 C  s               128      0.166302   8 H  s         

 Vector   40  Occ=2.000000D+00  E=-8.238886D-01
              MO Center=  7.9D-01, -1.0D+00, -3.1D-01, r^2= 7.6D+00
   Bfn.  Coefficient  Atom+Function         Bfn.  Coefficient  Atom+Function  
  ----- ------------  ---------------      ----- ------------  ---------------
   571      0.277649  32 C  s               577      0.273938  32 C  pz        
   624     -0.238238  34 N  pz              381      0.233658  21 C  py        
   569     -0.190794  32 C  s               291      0.187987  17 C  s         
   343      0.184968  19 N  px              382      0.184539  21 C  pz        
   380     -0.174897  21 C  px              652      0.167722  36 H  s         

 Vector   41  Occ=2.000000D+00  E=-8.185195D-01
              MO Center=  8.2D-02,  3.0D+00,  4.3D-01, r^2= 8.0D+00
   Bfn.  Coefficient  Atom+Function         Bfn.  Coefficient  Atom+Function  
  ----- ------------  ---------------      ----- ------------  ---------------
   215      0.248899  14 C  s               243      0.236955  15 O  px        
   241     -0.224363  15 O  s               266     -0.218950  16 O  s         
   216      0.199236  14 C  s               269     -0.176888  16 O  py        

 Vector   42  Occ=2.000000D+00  E=-7.810167D-01
              MO Center=  6.4D-01, -7.9D-01, -6.0D-01, r^2= 7.8D+00
   Bfn.  Coefficient  Atom+Function         Bfn.  Coefficient  Atom+Function  
  ----- ------------  ---------------      ----- ------------  ---------------
   643     -0.227764  35 H  s               570      0.215632  32 C  s         
   623     -0.206368  34 N  py              574     -0.205076  32 C  pz        
   622      0.151880  34 N  px        

 Vector   43  Occ=2.000000D+00  E=-7.701682D-01
              MO Center= -8.9D-01, -6.4D-01,  4.8D-01, r^2= 1.0D+01
   Bfn.  Coefficient  Atom+Function         Bfn.  Coefficient  Atom+Function  
  ----- ------------  ---------------      ----- ------------  ---------------
   520     -0.212047  30 O  s               523     -0.209683  30 O  py        
   494      0.205996  29 C  s               545     -0.181767  31 O  s         
   547      0.151811  31 O  px              294      0.150225  17 C  py        

 Vector   44  Occ=2.000000D+00  E=-7.588819D-01
              MO Center= -8.5D-02,  2.1D-01, -2.1D-01, r^2= 1.0D+01
   Bfn.  Coefficient  Atom+Function         Bfn.  Coefficient  Atom+Function  
  ----- ------------  ---------------      ----- ------------  ---------------
   107      0.184268   7 N  px              173      0.166553  11 C  s         
   144     -0.154860   9 C  px        

 Vector   45  Occ=2.000000D+00  E=-7.519377D-01
              MO Center=  5.3D-01,  7.4D-01, -2.1D-01, r^2= 8.8D+00
   Bfn.  Coefficient  Atom+Function         Bfn.  Coefficient  Atom+Function  
  ----- ------------  ---------------      ----- ------------  ---------------
   139      0.163910   9 C  s               162      0.164334  10 H  s         
   173     -0.157557  11 C  s               652     -0.158186  36 H  s         

 Vector   46  Occ=2.000000D+00  E=-7.270209D-01
              MO Center= -5.0D-01,  6.3D-01, -1.3D+00, r^2= 7.1D+00
   Bfn.  Coefficient  Atom+Function         Bfn.  Coefficient  Atom+Function  
  ----- ------------  ---------------      ----- ------------  ---------------
    82      0.280854   6 O  px               80      0.237700   6 O  s         
    17     -0.213105   2 C  px               14     -0.184877   2 C  px        
    59      0.175984   5 C  pz               85      0.173966   6 O  px        
   106     -0.161126   7 N  s                54     -0.158334   5 C  s         

 Vector   47  Occ=2.000000D+00  E=-7.252800D-01
              MO Center=  4.8D-01,  1.3D+00,  2.1D-01, r^2= 1.3D+01
   Bfn.  Coefficient  Atom+Function         Bfn.  Coefficient  Atom+Function  
  ----- ------------  ---------------      ----- ------------  ---------------
   218      0.212996  14 C  px              243     -0.201023  15 O  px        
   176      0.171501  11 C  py              652      0.164968  36 H  s         
   268      0.152621  16 O  px        

 Vector   48  Occ=2.000000D+00  E=-7.186265D-01
              MO Center=  5.4D-01,  3.2D+00,  5.5D-01, r^2= 7.8D+00
   Bfn.  Coefficient  Atom+Function         Bfn.  Coefficient  Atom+Function  
  ----- ------------  ---------------      ----- ------------  ---------------
   219      0.246040  14 C  py              269     -0.230309  16 O  py        
   266     -0.209695  16 O  s               268     -0.204668  16 O  px        
   244      0.182627  15 O  py              318      0.182083  18 O  px        
   174     -0.171026  11 C  s               243     -0.161232  15 O  px        

 Vector   49  Occ=2.000000D+00  E=-7.052723D-01
              MO Center=  1.5D-01,  9.0D-01,  2.7D-02, r^2= 1.2D+01
   Bfn.  Coefficient  Atom+Function         Bfn.  Coefficient  Atom+Function  
  ----- ------------  ---------------      ----- ------------  ---------------
   243      0.196132  15 O  px              218     -0.186519  14 C  px        
   269      0.187040  16 O  py              174     -0.176054  11 C  s         
   318      0.172589  18 O  px        

 Vector   50  Occ=2.000000D+00  E=-6.986953D-01
              MO Center= -5.0D-01, -1.8D+00,  6.2D-01, r^2= 7.4D+00
   Bfn.  Coefficient  Atom+Function         Bfn.  Coefficient  Atom+Function  
  ----- ------------  ---------------      ----- ------------  ---------------
   498      0.192316  29 C  py              457      0.170799  26 C  px        
   454      0.169940  26 C  px              522     -0.168283  30 O  px        
   548      0.166825  31 O  py              475      0.150482  27 H  s         

 Vector   51  Occ=2.000000D+00  E=-6.869055D-01
              MO Center= -1.8D+00, -2.2D+00,  5.8D-01, r^2= 6.0D+00
   Bfn.  Coefficient  Atom+Function         Bfn.  Coefficient  Atom+Function  
  ----- ------------  ---------------      ----- ------------  ---------------
   547     -0.278792  31 O  px              497      0.254849  29 C  px        
   545      0.223597  31 O  s               523     -0.194859  30 O  py        
   522      0.168566  30 O  px              455      0.155277  26 C  py        
   548     -0.153915  31 O  py        

 Vector   52  Occ=2.000000D+00  E=-6.712537D-01
              MO Center=  2.9D-01, -2.2D-01, -9.5D-02, r^2= 1.0D+01
   Bfn.  Coefficient  Atom+Function         Bfn.  Coefficient  Atom+Function  
  ----- ------------  ---------------      ----- ------------  ---------------
   318      0.263651  18 O  px              293     -0.199854  17 C  px        
   547     -0.171552  31 O  px              316      0.150648  18 O  s         

 Vector   53  Occ=2.000000D+00  E=-6.643319D-01
              MO Center=  2.9D-01,  5.9D-01,  2.3D-01, r^2= 1.1D+01
   Bfn.  Coefficient  Atom+Function         Bfn.  Coefficient  Atom+Function  
  ----- ------------  ---------------      ----- ------------  ---------------
    55      0.170575   5 C  s               177     -0.156825  11 C  pz        
   220     -0.152998  14 C  pz        

 Vector   54  Occ=2.000000D+00  E=-6.562947D-01
              MO Center= -2.6D-01,  1.6D-01, -8.2D-01, r^2= 9.3D+00
   Bfn.  Coefficient  Atom+Function         Bfn.  Coefficient  Atom+Function  
  ----- ------------  ---------------      ----- ------------  ---------------
    15      0.180726   2 C  py               83      0.171092   6 O  py        
    58      0.156113   5 C  py               35      0.154306   3 H  s         

 Vector   55  Occ=2.000000D+00  E=-6.506992D-01
              MO Center= -2.6D-01, -3.7D-01,  3.5D-01, r^2= 1.3D+01
   Bfn.  Coefficient  Atom+Function         Bfn.  Coefficient  Atom+Function  
  ----- ------------  ---------------      ----- ------------  ---------------
   456      0.169182  26 C  pz        

 Vector   56  Occ=2.000000D+00  E=-6.392376D-01
              MO Center= -1.1D-01,  8.5D-01, -3.3D-01, r^2= 9.8D+00
   Bfn.  Coefficient  Atom+Function         Bfn.  Coefficient  Atom+Function  
  ----- ------------  ---------------      ----- ------------  ---------------
    57      0.209453   5 C  px              175      0.205814  11 C  px        
    84      0.204221   6 O  pz              205      0.196318  13 H  s         
    14     -0.155222   2 C  px              342     -0.151616  19 N  s         

 Vector   57  Occ=2.000000D+00  E=-6.366547D-01
              MO Center=  4.6D-01, -1.5D-01, -3.5D-02, r^2= 1.0D+01
   Bfn.  Coefficient  Atom+Function         Bfn.  Coefficient  Atom+Function  
  ----- ------------  ---------------      ----- ------------  ---------------
   318      0.194656  18 O  px              293     -0.175190  17 C  px        

 Vector   58  Occ=2.000000D+00  E=-6.217634D-01
              MO Center=  1.9D-01,  5.3D-01,  3.6D-01, r^2= 1.1D+01
   Bfn.  Coefficient  Atom+Function         Bfn.  Coefficient  Atom+Function  
  ----- ------------  ---------------      ----- ------------  ---------------
   206      0.213113  13 H  s               175      0.199524  11 C  px        
   205      0.179215  13 H  s               174     -0.165861  11 C  s         
   196     -0.153105  12 H  s         

 Vector   59  Occ=2.000000D+00  E=-6.203066D-01
              MO Center=  6.7D-02,  1.1D+00, -4.4D-01, r^2= 1.1D+01
   Bfn.  Coefficient  Atom+Function         Bfn.  Coefficient  Atom+Function  
  ----- ------------  ---------------      ----- ------------  ---------------
    84      0.208526   6 O  pz              245      0.172737  15 O  pz        
    57      0.159593   5 C  px        

 Vector   60  Occ=2.000000D+00  E=-6.105377D-01
              MO Center=  6.4D-01, -1.6D+00, -1.5D-02, r^2= 1.1D+01
   Bfn.  Coefficient  Atom+Function         Bfn.  Coefficient  Atom+Function  
  ----- ------------  ---------------      ----- ------------  ---------------
   598      0.278137  33 O  py              571      0.219143  32 C  s         
   595     -0.185085  33 O  s               572      0.175005  32 C  px        
   573     -0.167239  32 C  py              442      0.165825  25 H  s         

 Vector   61  Occ=2.000000D+00  E=-5.941948D-01
              MO Center= -2.1D-01,  6.7D-02, -6.5D-02, r^2= 1.3D+01
   Bfn.  Coefficient  Atom+Function         Bfn.  Coefficient  Atom+Function  
  ----- ------------  ---------------      ----- ------------  ---------------
    15      0.173501   2 C  py              196     -0.170840  12 H  s         
   206      0.166417  13 H  s               409      0.155827  23 C  s         

 Vector   62  Occ=2.000000D+00  E=-5.902862D-01
              MO Center= -1.3D+00,  1.3D-01, -1.1D+00, r^2= 9.5D+00
   Bfn.  Coefficient  Atom+Function         Bfn.  Coefficient  Atom+Function  
  ----- ------------  ---------------      ----- ------------  ---------------
    44      0.288374   4 H  s                45      0.269171   4 H  s         
    15     -0.243385   2 C  py               13     -0.235425   2 C  s         
    16     -0.216267   2 C  pz              217     -0.206524  14 C  s         
    35     -0.185519   3 H  s               147     -0.181986   9 C  px        
    74      0.178085   5 C  dxz             409      0.177731  23 C  s         

 Vector   63  Occ=2.000000D+00  E=-5.825771D-01
              MO Center= -1.1D-02, -1.2D+00,  4.6D-01, r^2= 1.1D+01
   Bfn.  Coefficient  Atom+Function         Bfn.  Coefficient  Atom+Function  
  ----- ------------  ---------------      ----- ------------  ---------------
   432      0.220675  24 H  s               433      0.201891  24 H  s         
   342      0.178494  19 N  s               571     -0.173030  32 C  s         
   411      0.172041  23 C  px              350     -0.169903  19 N  py        
   442     -0.167027  25 H  s               412     -0.153553  23 C  py        
   399     -0.150964  22 H  s         

 Vector   64  Occ=2.000000D+00  E=-5.748040D-01
              MO Center= -2.4D-01, -3.1D-02, -1.1D-01, r^2= 1.1D+01
   Bfn.  Coefficient  Atom+Function         Bfn.  Coefficient  Atom+Function  
  ----- ------------  ---------------      ----- ------------  ---------------
    16      0.182910   2 C  pz                1      0.161077   1 H  s         
   177      0.158249  11 C  pz        

 Vector   65  Occ=2.000000D+00  E=-5.589763D-01
              MO Center=  4.6D-01, -2.4D+00,  5.2D-01, r^2= 6.9D+00
   Bfn.  Coefficient  Atom+Function         Bfn.  Coefficient  Atom+Function  
  ----- ------------  ---------------      ----- ------------  ---------------
   442      0.324374  25 H  s               571      0.235874  32 C  s         
   441      0.225411  25 H  s               412      0.197258  23 C  py        
   572     -0.185156  32 C  px              432     -0.179362  24 H  s         
   598     -0.175084  33 O  py              433     -0.161912  24 H  s         
   413      0.152307  23 C  pz        

 Vector   66  Occ=2.000000D+00  E=-5.550628D-01
              MO Center= -4.1D-01,  8.5D-01, -5.8D-01, r^2= 8.4D+00
   Bfn.  Coefficient  Atom+Function         Bfn.  Coefficient  Atom+Function  
  ----- ------------  ---------------      ----- ------------  ---------------
   342      0.193447  19 N  s                83      0.188662   6 O  py        
   143      0.175958   9 C  pz                1      0.171497   1 H  s         
   162     -0.172322  10 H  s                15     -0.163650   2 C  py        
   320     -0.163583  18 O  pz                2      0.160711   1 H  s         
    35     -0.155139   3 H  s               177     -0.154455  11 C  pz        

 Vector   67  Occ=2.000000D+00  E=-5.335378D-01
              MO Center= -3.9D-02, -2.4D+00,  6.8D-01, r^2= 5.8D+00
   Bfn.  Coefficient  Atom+Function         Bfn.  Coefficient  Atom+Function  
  ----- ------------  ---------------      ----- ------------  ---------------
   375      0.262959  21 C  s               456      0.251188  26 C  pz        
   475     -0.211239  27 H  s               413     -0.208910  23 C  pz        
   409     -0.184706  23 C  s               441     -0.180243  25 H  s         
   414     -0.160932  23 C  px              548      0.153119  31 O  py        
   398      0.150988  22 H  s               442     -0.151192  25 H  s         

 Vector   68  Occ=2.000000D+00  E=-5.282159D-01
              MO Center=  4.9D-02, -2.5D+00,  7.4D-01, r^2= 5.3D+00
   Bfn.  Coefficient  Atom+Function         Bfn.  Coefficient  Atom+Function  
  ----- ------------  ---------------      ----- ------------  ---------------
   485      0.327384  28 H  s               571      0.301943  32 C  s         
   377     -0.233884  21 C  px              484      0.226354  28 H  s         
   476     -0.194819  27 H  s               453     -0.185868  26 C  s         
   381     -0.181274  21 C  py              412      0.168745  23 C  py        
   456      0.167603  26 C  pz              378     -0.165295  21 C  py        

 Vector   69  Occ=2.000000D+00  E=-5.173962D-01
              MO Center=  4.4D-01,  3.4D+00,  5.1D-01, r^2= 6.7D+00
   Bfn.  Coefficient  Atom+Function         Bfn.  Coefficient  Atom+Function  
  ----- ------------  ---------------      ----- ------------  ---------------
   269     -0.269914  16 O  py              319     -0.261050  18 O  py        
   245      0.259703  15 O  pz              106     -0.226595   7 N  s         
   322     -0.206866  18 O  py              248      0.194617  15 O  pz        
   270     -0.185834  16 O  pz              244     -0.178465  15 O  py        
   272     -0.177553  16 O  py              268      0.171502  16 O  px        

 Vector   70  Occ=2.000000D+00  E=-5.118529D-01
              MO Center= -2.5D-01,  4.2D+00,  5.4D-01, r^2= 3.3D+00
   Bfn.  Coefficient  Atom+Function         Bfn.  Coefficient  Atom+Function  
  ----- ------------  ---------------      ----- ------------  ---------------
   244      0.460615  15 O  py              247      0.382034  15 O  py        
   268      0.372313  16 O  px              271      0.283213  16 O  px        
   197     -0.245644  12 H  s               173      0.188006  11 C  s         
   571      0.168679  32 C  s               139     -0.167020   9 C  s         

 Vector   71  Occ=2.000000D+00  E=-4.933006D-01
              MO Center=  7.4D-01,  1.1D+00, -2.5D-01, r^2= 8.3D+00
   Bfn.  Coefficient  Atom+Function         Bfn.  Coefficient  Atom+Function  
  ----- ------------  ---------------      ----- ------------  ---------------
   319      0.273639  18 O  py              320     -0.253536  18 O  pz        
   163      0.232995  10 H  s               322      0.214472  18 O  py        
   139     -0.202700   9 C  s               323     -0.195221  18 O  pz        
    82     -0.192873   6 O  px               83     -0.190895   6 O  py        
   106     -0.179136   7 N  s                85     -0.151574   6 O  px        

 Vector   72  Occ=2.000000D+00  E=-4.815141D-01
              MO Center= -4.2D-01,  6.5D-01, -1.6D+00, r^2= 4.7D+00
   Bfn.  Coefficient  Atom+Function         Bfn.  Coefficient  Atom+Function  
  ----- ------------  ---------------      ----- ------------  ---------------
    82      0.398139   6 O  px               85      0.309504   6 O  px        
    84      0.269862   6 O  pz               87      0.229189   6 O  pz        
    14      0.217267   2 C  px               17      0.217911   2 C  px        
   319      0.197296  18 O  py              105     -0.160279   7 N  s         
   322      0.157364  18 O  py               13     -0.154564   2 C  s         

 Vector   73  Occ=2.000000D+00  E=-4.773468D-01
              MO Center= -1.5D+00, -1.8D+00,  7.3D-01, r^2= 4.2D+00
   Bfn.  Coefficient  Atom+Function         Bfn.  Coefficient  Atom+Function  
  ----- ------------  ---------------      ----- ------------  ---------------
   522      0.481385  30 O  px              525      0.403574  30 O  px        
   548      0.269415  31 O  py              551      0.210680  31 O  py        
   375     -0.186154  21 C  s               455     -0.177478  26 C  py        

 Vector   74  Occ=2.000000D+00  E=-4.714724D-01
              MO Center=  9.6D-01, -5.4D-01, -2.8D-01, r^2= 8.1D+00
   Bfn.  Coefficient  Atom+Function         Bfn.  Coefficient  Atom+Function  
  ----- ------------  ---------------      ----- ------------  ---------------
   599      0.314221  33 O  pz              345      0.273361  19 N  pz        
   173     -0.261278  11 C  s               348      0.250713  19 N  pz        
   602      0.244954  33 O  pz              375     -0.215113  21 C  s         
   399      0.206925  22 H  s               108     -0.200952   7 N  py        
   320     -0.198931  18 O  pz              111     -0.181645   7 N  py        

 Vector   75  Occ=2.000000D+00  E=-4.671804D-01
              MO Center= -2.1D+00, -2.5D+00,  8.0D-01, r^2= 3.4D+00
   Bfn.  Coefficient  Atom+Function         Bfn.  Coefficient  Atom+Function  
  ----- ------------  ---------------      ----- ------------  ---------------
   548      0.313661  31 O  py              524      0.266623  30 O  pz        
   549     -0.256852  31 O  pz              551      0.247445  31 O  py        
   547     -0.225506  31 O  px              527      0.212830  30 O  pz        
   454     -0.201250  26 C  px              552     -0.193669  31 O  pz        
   433      0.167204  24 H  s               550     -0.152526  31 O  px        

 Vector   76  Occ=2.000000D+00  E=-4.388092D-01
              MO Center=  7.8D-01,  2.8D-01, -4.3D-01, r^2= 1.1D+01
   Bfn.  Coefficient  Atom+Function         Bfn.  Coefficient  Atom+Function  
  ----- ------------  ---------------      ----- ------------  ---------------
   599      0.300978  33 O  pz              602      0.235881  33 O  pz        
   399      0.230147  22 H  s               108      0.226806   7 N  py        
   319     -0.221373  18 O  py              111      0.209992   7 N  py        
   375     -0.195508  21 C  s               322     -0.182663  18 O  py        
    83     -0.179842   6 O  py              109     -0.178337   7 N  pz        

 Vector   77  Occ=2.000000D+00  E=-4.217312D-01
              MO Center=  1.8D+00, -2.6D+00, -1.1D+00, r^2= 2.4D+00
   Bfn.  Coefficient  Atom+Function         Bfn.  Coefficient  Atom+Function  
  ----- ------------  ---------------      ----- ------------  ---------------
   622     -0.350060  34 N  px              597      0.327880  33 O  px        
   625     -0.299751  34 N  px              600      0.260234  33 O  px        
   623     -0.257996  34 N  py              598      0.238260  33 O  py        
   626     -0.235165  34 N  py              601      0.188753  33 O  py        
   300     -0.157632  17 C  py        

 Vector   78  Occ=2.000000D+00  E=-4.118073D-01
              MO Center=  1.2D+00, -1.2D+00,  1.4D-01, r^2= 8.6D+00
   Bfn.  Coefficient  Atom+Function         Bfn.  Coefficient  Atom+Function  
  ----- ------------  ---------------      ----- ------------  ---------------
   599      0.324670  33 O  pz              345     -0.291411  19 N  pz        
   348     -0.276733  19 N  pz              602      0.257102  33 O  pz        
   292      0.224244  17 C  s               442     -0.212533  25 H  s         
   342     -0.205718  19 N  s               320      0.179672  18 O  pz        
   140      0.172529   9 C  s               379      0.166450  21 C  pz        

 Vector   79  Occ=2.000000D+00  E=-3.685882D-01
              MO Center= -1.5D+00,  3.7D-01,  6.6D-01, r^2= 1.5D+01
   Bfn.  Coefficient  Atom+Function         Bfn.  Coefficient  Atom+Function  
  ----- ------------  ---------------      ----- ------------  ---------------
   549      0.259905  31 O  pz              524     -0.239900  30 O  pz        
   270      0.233542  16 O  pz              552      0.209492  31 O  pz        
   527     -0.197336  30 O  pz              453     -0.190471  26 C  s         
   245     -0.187285  15 O  pz              273      0.185460  16 O  pz        
   342      0.182525  19 N  s               350     -0.182412  19 N  py        

 Vector   80  Occ=0.000000D+00  E=-2.774318D-01
              MO Center= -6.1D-01,  1.3D+00,  4.5D-01, r^2= 1.4D+01
   Bfn.  Coefficient  Atom+Function         Bfn.  Coefficient  Atom+Function  
  ----- ------------  ---------------      ----- ------------  ---------------
   342      0.273522  19 N  s               270     -0.235052  16 O  pz        
   524     -0.189578  30 O  pz              245      0.188261  15 O  pz        
   273     -0.188480  16 O  pz              549      0.188438  31 O  pz        
   409      0.174120  23 C  s               244      0.159991  15 O  py        
   248      0.155478  15 O  pz              527     -0.153976  30 O  pz        

 Vector   81  Occ=0.000000D+00  E= 2.351981D-02
              MO Center=  3.8D-01,  5.3D-01,  3.5D+00, r^2= 2.0D+01
   Bfn.  Coefficient  Atom+Function         Bfn.  Coefficient  Atom+Function  
  ----- ------------  ---------------      ----- ------------  ---------------
   366      6.410659  20 H  s               198     -3.449061  12 H  s         
   443     -3.374793  25 H  s               147      2.821604   9 C  px        
   217      2.444357  14 C  s               496      2.443123  29 C  s         
   453     -2.313650  26 C  s               384     -1.776956  21 C  py        
   419      1.766090  23 C  pz              300     -1.749728  17 C  py        

 Vector   82  Occ=0.000000D+00  E= 3.186524D-02
              MO Center= -1.8D+00,  1.1D+00, -2.7D+00, r^2= 2.7D+01
   Bfn.  Coefficient  Atom+Function         Bfn.  Coefficient  Atom+Function  
  ----- ------------  ---------------      ----- ------------  ---------------
    63      2.694309   5 C  px              149      2.303363   9 C  pz        
    37      2.078940   3 H  s               217     -2.083805  14 C  s         
    46      2.042590   4 H  s               300     -2.028959  17 C  py        
   164      1.946997  10 H  s                12     -1.743139   2 C  s         
   580      1.544825  32 C  pz              376     -1.493545  21 C  s         

 Vector   83  Occ=0.000000D+00  E= 3.822852D-02
              MO Center=  2.4D-02, -2.4D+00,  1.8D+00, r^2= 3.7D+01
   Bfn.  Coefficient  Atom+Function         Bfn.  Coefficient  Atom+Function  
  ----- ------------  ---------------      ----- ------------  ---------------
   496      7.028070  29 C  s               453     -5.566541  26 C  s         
   571      4.321309  32 C  s               217     -3.755337  14 C  s         
   384     -3.483644  21 C  py              300     -3.188937  17 C  py        
    13     -3.112947   2 C  s               461     -3.042076  26 C  py        
   174      2.916679  11 C  s               486     -2.720728  28 H  s         

 Vector   84  Occ=0.000000D+00  E= 4.171835D-02
              MO Center=  2.8D-01,  1.3D+00, -1.1D+00, r^2= 3.6D+01
   Bfn.  Coefficient  Atom+Function         Bfn.  Coefficient  Atom+Function  
  ----- ------------  ---------------      ----- ------------  ---------------
    63      4.083868   5 C  px              164     -2.721519  10 H  s         
   147      2.674023   9 C  px              207     -2.368732  13 H  s         
   383      2.365370  21 C  px                3      2.214943   1 H  s         
    65      2.151730   5 C  pz              366      2.147096  20 H  s         
   174     -2.089617  11 C  s               400     -2.030488  22 H  s         

 Vector   85  Occ=0.000000D+00  E= 4.677133D-02
              MO Center=  2.8D-01, -4.7D-01, -1.2D+00, r^2= 3.8D+01
   Bfn.  Coefficient  Atom+Function         Bfn.  Coefficient  Atom+Function  
  ----- ------------  ---------------      ----- ------------  ---------------
   580     -3.133729  32 C  pz              164      3.003273  10 H  s         
   621     -2.661663  34 N  s               198     -2.645443  12 H  s         
   292      2.505529  17 C  s               410      2.480996  23 C  s         
   654     -2.492927  36 H  s               477     -2.457822  27 H  s         
   434      2.435955  24 H  s               571     -2.393986  32 C  s         

 Vector   86  Occ=0.000000D+00  E= 5.106333D-02
              MO Center=  3.8D-02, -1.1D+00,  1.0D+00, r^2= 4.1D+01
   Bfn.  Coefficient  Atom+Function         Bfn.  Coefficient  Atom+Function  
  ----- ------------  ---------------      ----- ------------  ---------------
   571      6.650701  32 C  s               453     -5.694439  26 C  s         
   400      5.078438  22 H  s                56      4.627312   5 C  s         
   217      4.583708  14 C  s               621     -4.481054  34 N  s         
   383     -3.680558  21 C  px              486     -3.590669  28 H  s         
   496      3.546147  29 C  s               174     -3.429050  11 C  s         

 Vector   87  Occ=0.000000D+00  E= 5.455992D-02
              MO Center=  1.2D+00,  3.6D-01,  6.8D-01, r^2= 4.1D+01
   Bfn.  Coefficient  Atom+Function         Bfn.  Coefficient  Atom+Function  
  ----- ------------  ---------------      ----- ------------  ---------------
[...]
   113     -6.235268   7 N  px               64     -6.091335   5 C  py        
   217      6.021889  14 C  s                13     -5.959194   2 C  s         

 Vector  187  Occ=0.000000D+00  E= 4.192583D-01
              MO Center=  9.6D-02, -5.7D-01,  7.7D-02, r^2= 2.2D+01
   Bfn.  Coefficient  Atom+Function         Bfn.  Coefficient  Atom+Function  
  ----- ------------  ---------------      ----- ------------  ---------------
    13     14.802983   2 C  s                63     12.417997   5 C  px        
   106    -12.352426   7 N  s               149      8.431669   9 C  pz        
   453      8.453034  26 C  s               366     -7.234343  20 H  s         
   114      5.899578   7 N  py               65      5.699987   5 C  pz        
   173      5.425781  11 C  s               300      5.438359  17 C  py        

 Vector  188  Occ=0.000000D+00  E= 4.220510D-01
              MO Center=  5.6D-01, -2.6D-01,  2.4D-01, r^2= 2.0D+01
   Bfn.  Coefficient  Atom+Function         Bfn.  Coefficient  Atom+Function  
  ----- ------------  ---------------      ----- ------------  ---------------
   174     13.418419  11 C  s               217    -11.977082  14 C  s         
   106    -10.531342   7 N  s               300     -9.276127  17 C  py        
   453     -8.403938  26 C  s               399     -6.980185  22 H  s         
   496      6.274097  29 C  s               410     -6.011913  23 C  s         
   342      5.427539  19 N  s                56      5.072892   5 C  s         

 Vector  189  Occ=0.000000D+00  E= 4.243786D-01
              MO Center= -3.5D-01,  2.6D-01, -4.0D-01, r^2= 1.7D+01
   Bfn.  Coefficient  Atom+Function         Bfn.  Coefficient  Atom+Function  
  ----- ------------  ---------------      ----- ------------  ---------------
   300    -13.884911  17 C  py               13     12.775271   2 C  s         
   366    -10.608527  20 H  s                63     10.267373   5 C  px        
    56      8.678669   5 C  s               148      8.306261   9 C  py        
   147      7.183182   9 C  px              114      6.372655   7 N  py        
   149      5.812005   9 C  pz              115      5.643520   7 N  pz        

 Vector  190  Occ=0.000000D+00  E= 4.312376D-01
              MO Center=  4.6D-01, -2.7D-03,  1.0D-01, r^2= 2.2D+01
   Bfn.  Coefficient  Atom+Function         Bfn.  Coefficient  Atom+Function  
  ----- ------------  ---------------      ----- ------------  ---------------
   300     12.332347  17 C  py              292     11.408070  17 C  s         
   376     10.044583  21 C  s               148      9.589376   9 C  py        
   113     -8.287803   7 N  px              174     -8.186720  11 C  s         
   217     -7.720366  14 C  s               366     -7.716403  20 H  s         
   106     -7.594626   7 N  s               301     -7.220022  17 C  pz        

 Vector  191  Occ=0.000000D+00  E= 4.346986D-01
              MO Center= -2.3D-01, -3.8D-01, -3.9D-01, r^2= 2.1D+01
   Bfn.  Coefficient  Atom+Function         Bfn.  Coefficient  Atom+Function  
  ----- ------------  ---------------      ----- ------------  ---------------
   147     17.289960   9 C  px              106     15.673465   7 N  s         
   384    -13.253008  21 C  py              292    -12.099440  17 C  s         
   301     10.698276  17 C  pz              571    -10.505604  32 C  s         
   300     -8.733844  17 C  py              580     -8.507758  32 C  pz        
   376     -8.434966  21 C  s                13      7.754081   2 C  s         

 Vector  192  Occ=0.000000D+00  E= 4.357814D-01
              MO Center= -1.2D+00, -1.7D-01, -1.7D-01, r^2= 2.2D+01
   Bfn.  Coefficient  Atom+Function         Bfn.  Coefficient  Atom+Function  
  ----- ------------  ---------------      ----- ------------  ---------------
   217     18.131253  14 C  s               174    -13.654791  11 C  s         
   496      9.810360  29 C  s                13     -9.436483   2 C  s         
   182     -6.249837  11 C  py              384      6.243550  21 C  py        
   301     -6.205629  17 C  pz                2      5.983869   1 H  s         
    12     -5.304824   2 C  s               140     -5.306999   9 C  s         

 Vector  193  Occ=0.000000D+00  E= 4.389644D-01
              MO Center= -7.0D-01, -2.5D-02, -2.5D-01, r^2= 2.1D+01
   Bfn.  Coefficient  Atom+Function         Bfn.  Coefficient  Atom+Function  
  ----- ------------  ---------------      ----- ------------  ---------------
   496     11.070083  29 C  s               217      8.359956  14 C  s         
   621     -7.890977  34 N  s               571      6.824193  32 C  s         
   292     -6.752214  17 C  s               140     -5.359210   9 C  s         
   383      5.034450  21 C  px              113      4.753221   7 N  px        
   182     -4.619128  11 C  py              580     -4.574976  32 C  pz        

 Vector  194  Occ=0.000000D+00  E= 4.453634D-01
              MO Center= -4.6D-02,  3.6D-01,  9.8D-02, r^2= 2.2D+01
   Bfn.  Coefficient  Atom+Function         Bfn.  Coefficient  Atom+Function  
  ----- ------------  ---------------      ----- ------------  ---------------
   571     20.963163  32 C  s               300    -17.545733  17 C  py        
   217     14.804970  14 C  s               621    -12.289375  34 N  s         
   106      9.076112   7 N  s               182     -8.785267  11 C  py        
   410     -7.686752  23 C  s               350      7.213472  19 N  py        
   383     -7.123101  21 C  px              181      6.926963  11 C  px        

 Vector  195  Occ=0.000000D+00  E= 4.457777D-01
              MO Center= -3.1D-01, -7.1D-01,  2.2D-01, r^2= 2.1D+01
   Bfn.  Coefficient  Atom+Function         Bfn.  Coefficient  Atom+Function  
  ----- ------------  ---------------      ----- ------------  ---------------
   300    -20.343442  17 C  py              292     20.116409  17 C  s         
   366    -16.077771  20 H  s               453    -14.754711  26 C  s         
   174     12.638474  11 C  s               384    -11.715185  21 C  py        
   140     11.377469   9 C  s               342    -10.745205  19 N  s         
   106     -9.232858   7 N  s               452     -8.804253  26 C  s         

 Vector  196  Occ=0.000000D+00  E= 4.485468D-01
              MO Center=  4.9D-01,  5.6D-01,  2.4D-01, r^2= 2.1D+01
   Bfn.  Coefficient  Atom+Function         Bfn.  Coefficient  Atom+Function  
  ----- ------------  ---------------      ----- ------------  ---------------
   292     19.318029  17 C  s               453    -19.024429  26 C  s         
   140     15.178208   9 C  s               384    -13.262436  21 C  py        
   350    -12.581735  19 N  py              571    -12.628123  32 C  s         
    13    -10.535367   2 C  s               300      9.511062  17 C  py        
   376      8.532422  21 C  s                63     -8.116241   5 C  px        

 Vector  197  Occ=0.000000D+00  E= 4.562161D-01
              MO Center=  2.8D-01, -1.1D+00, -4.3D-01, r^2= 2.1D+01
   Bfn.  Coefficient  Atom+Function         Bfn.  Coefficient  Atom+Function  
  ----- ------------  ---------------      ----- ------------  ---------------
   571     35.288643  32 C  s               174     25.324951  11 C  s         
   342    -13.392526  19 N  s               410    -13.346083  23 C  s         
   385     13.020475  21 C  pz              383    -11.922811  21 C  px        
   366    -11.746721  20 H  s               148    -10.952278   9 C  py        
   453    -10.284219  26 C  s               147     -7.749058   9 C  px        

 Vector  198  Occ=0.000000D+00  E= 4.573568D-01
              MO Center= -1.4D-01, -1.4D+00,  5.6D-01, r^2= 2.1D+01
   Bfn.  Coefficient  Atom+Function         Bfn.  Coefficient  Atom+Function  
  ----- ------------  ---------------      ----- ------------  ---------------
   496     24.254138  29 C  s               300     14.453467  17 C  py        
   342     13.297852  19 N  s               571    -11.658995  32 C  s         
   621     11.412761  34 N  s               140     -8.105364   9 C  s         
   521     -7.949181  30 O  s               410     -7.669248  23 C  s         
   106     -7.372449   7 N  s               292     -6.872094  17 C  s         

 Vector  199  Occ=0.000000D+00  E= 4.588646D-01
              MO Center= -7.0D-01,  3.1D-01, -3.8D-01, r^2= 1.9D+01
   Bfn.  Coefficient  Atom+Function         Bfn.  Coefficient  Atom+Function  
  ----- ------------  ---------------      ----- ------------  ---------------
   496     17.091746  29 C  s               453    -11.644052  26 C  s         
   342    -11.013572  19 N  s               366    -10.695053  20 H  s         
   292     10.329478  17 C  s                13     -9.929389   2 C  s         
    63     -8.681913   5 C  px               12     -7.274220   2 C  s         
     2      7.003157   1 H  s               140      6.960135   9 C  s         

 Vector  200  Occ=0.000000D+00  E= 4.654155D-01
              MO Center= -6.4D-01, -4.0D-01, -1.3D-01, r^2= 2.0D+01
   Bfn.  Coefficient  Atom+Function         Bfn.  Coefficient  Atom+Function  
  ----- ------------  ---------------      ----- ------------  ---------------
   106      9.013935   7 N  s               571     -8.923474  32 C  s         
   301      7.795594  17 C  pz              385     -7.288309  21 C  pz        
   342      6.417138  19 N  s               350     -6.287386  19 N  py        
   149     -5.749003   9 C  pz              366      5.694068  20 H  s         
   217     -5.435377  14 C  s               419      4.900396  23 C  pz        

 Vector  201  Occ=0.000000D+00  E= 4.695291D-01
              MO Center=  1.8D-01, -5.6D-01,  2.0D-01, r^2= 2.1D+01
   Bfn.  Coefficient  Atom+Function         Bfn.  Coefficient  Atom+Function  
  ----- ------------  ---------------      ----- ------------  ---------------
   342     22.353600  19 N  s               217     17.503235  14 C  s         
   140    -17.014765   9 C  s               292    -16.561413  17 C  s         
   385     15.467114  21 C  pz              300    -14.041652  17 C  py        
   410    -13.955638  23 C  s               350     11.834723  19 N  py        
   182    -11.686801  11 C  py              163      8.519848  10 H  s         

 Vector  202  Occ=0.000000D+00  E= 4.732337D-01
              MO Center=  7.9D-02,  8.5D-01, -9.6D-02, r^2= 2.3D+01
   Bfn.  Coefficient  Atom+Function         Bfn.  Coefficient  Atom+Function  
  ----- ------------  ---------------      ----- ------------  ---------------
   217     23.794266  14 C  s               571    -20.251666  32 C  s         
    13     18.032604   2 C  s               453     12.362122  26 C  s         
   300    -11.353564  17 C  py              148    -10.512681   9 C  py        
   496     -8.907691  29 C  s                63      8.062263   5 C  px        
   242     -7.893565  15 O  s               267     -7.906619  16 O  s         

 Vector  203  Occ=0.000000D+00  E= 4.757493D-01
              MO Center=  2.5D-01, -8.7D-01, -5.2D-01, r^2= 1.6D+01
   Bfn.  Coefficient  Atom+Function         Bfn.  Coefficient  Atom+Function  
  ----- ------------  ---------------      ----- ------------  ---------------
   571     25.748332  32 C  s               174     18.541004  11 C  s         
    56    -15.481084   5 C  s               410    -15.160970  23 C  s         
   292    -14.816442  17 C  s               106      9.516730   7 N  s         
   148     -9.530024   9 C  py              147     -8.869260   9 C  px        
   217      8.231419  14 C  s               342      7.874490  19 N  s         

 Vector  204  Occ=0.000000D+00  E= 4.823148D-01
              MO Center= -2.0D-01, -6.2D-01, -1.9D-02, r^2= 2.0D+01
   Bfn.  Coefficient  Atom+Function         Bfn.  Coefficient  Atom+Function  
  ----- ------------  ---------------      ----- ------------  ---------------
   571     24.211273  32 C  s               366    -13.383194  20 H  s         
   385     11.209652  21 C  pz              376      8.565570  21 C  s         
    56      8.093293   5 C  s               300      7.884511  17 C  py        
   496     -7.782320  29 C  s               621     -7.446402  34 N  s         
   383     -7.308353  21 C  px              217      7.074797  14 C  s         

 Vector  205  Occ=0.000000D+00  E= 4.911593D-01
              MO Center=  2.7D-01, -7.3D-01,  4.2D-01, r^2= 2.0D+01
   Bfn.  Coefficient  Atom+Function         Bfn.  Coefficient  Atom+Function  
  ----- ------------  ---------------      ----- ------------  ---------------
   174     20.129735  11 C  s               410    -17.726887  23 C  s         
   342     14.267650  19 N  s               292    -13.996689  17 C  s         
   300    -12.130544  17 C  py              496      9.744436  29 C  s         
    56     -8.494367   5 C  s               106      7.954349   7 N  s         
   149     -7.683168   9 C  pz              140     -7.374104   9 C  s         

 Vector  206  Occ=0.000000D+00  E= 4.968602D-01
              MO Center=  1.1D-01,  2.1D-01, -2.4D-01, r^2= 1.8D+01
   Bfn.  Coefficient  Atom+Function         Bfn.  Coefficient  Atom+Function  
  ----- ------------  ---------------      ----- ------------  ---------------
   300     22.913095  17 C  py              571     21.460072  32 C  s         
   106    -20.748399   7 N  s               376     16.872000  21 C  s         
   217    -14.066275  14 C  s               174    -12.983362  11 C  s         
   385     11.822433  21 C  pz               56     11.549506   5 C  s         
   453    -11.069311  26 C  s               292      9.832563  17 C  s         

 Vector  207  Occ=0.000000D+00  E= 5.029786D-01
              MO Center=  4.7D-01, -3.9D-01,  2.4D-01, r^2= 2.0D+01
   Bfn.  Coefficient  Atom+Function         Bfn.  Coefficient  Atom+Function  
  ----- ------------  ---------------      ----- ------------  ---------------
   571     26.694521  32 C  s               148    -11.079220   9 C  py        
   410    -10.720175  23 C  s               217      9.941125  14 C  s         
   383     -9.057524  21 C  px              300      8.317931  17 C  py        
   114      7.894213   7 N  py              580      6.658813  32 C  pz        
   147      6.513417   9 C  px              621     -6.316203  34 N  s         


 center of mass
 --------------
 x =   0.01820813 y =   0.04184505 z =   0.00082442

 moments of inertia (a.u.)
 ------------------
        8728.180561588257          -0.000000000003           0.000000000002
          -0.000000000003        4180.655088244480          -0.000000000004
           0.000000000002          -0.000000000004       10353.998479712365

  Mulliken analysis of the total density
  --------------------------------------

    Atom       Charge   Shell Charges
 -----------   ------   -------------------------------------------------------
    1 H    1     0.84   0.75  0.11  0.01  0.03 -0.06
    2 C    6     6.18   2.01  0.66  0.22  0.11  2.07  0.97 -0.02  0.06  0.10
    3 H    1     0.84   0.76  0.12  0.01  0.03 -0.07
    4 H    1     0.98   0.76  0.25  0.00  0.03 -0.06
    5 C    6     5.22   2.01  0.68  0.12 -0.05  1.90  0.38 -0.05  0.23  0.00
    6 O    8     8.82   2.01  0.82  1.01  0.20  2.78  1.85  0.14  0.01 -0.01
    7 N    7     7.56   2.01  0.73  0.84 -0.11  2.42  1.43  0.16  0.05  0.03
    8 H    1     0.86   0.73  0.16 -0.02  0.06 -0.07
    9 C    6     6.35   2.01  0.67  0.18  0.08  1.98  0.93  0.18  0.13  0.19
   10 H    1     1.11   0.77  0.28  0.01  0.03  0.03
   11 C    6     6.43   2.01  0.67  0.69 -0.09  2.03  0.90 -0.04  0.09  0.18
   12 H    1     0.78   0.76  0.04  0.01  0.03 -0.06
   13 H    1     0.92   0.76  0.20 -0.01  0.03 -0.06
   14 C    6     4.32   2.01  0.68  0.01 -0.23  1.87 -0.03 -0.00  0.26 -0.25
   15 O    8     8.60   2.01  0.84  1.01  0.16  2.72  1.77  0.11  0.01 -0.03
   16 O    8     8.53   2.01  0.84  1.01  0.15  2.71  1.72  0.11  0.01 -0.03
   17 C    6     4.88   2.01  0.68  0.18  0.04  1.88  0.16  0.03  0.23 -0.33
   18 O    8     8.81   2.01  0.83  1.06  0.19  2.76  1.83  0.12  0.01 -0.00
   19 N    7     7.31   2.01  0.73  0.79 -0.16  2.41  1.41  0.04  0.05  0.02
   20 H    1     0.84   0.71  0.30 -0.00  0.06 -0.23
   21 C    6     6.21   2.01  0.67  0.06  0.01  1.99  1.15  0.13  0.13  0.06
   22 H    1     1.09   0.77  0.29  0.00  0.03  0.00
   23 C    6     5.83   2.01  0.66  0.22 -0.04  2.03  0.70  0.07  0.09  0.09
   24 H    1     1.05   0.77  0.32 -0.01  0.03 -0.06
   25 H    1     1.12   0.78  0.39 -0.01  0.03 -0.07
   26 C    6     6.14   2.01  0.66  0.33 -0.10  2.03  0.99  0.04  0.09  0.09
   27 H    1     0.91   0.77  0.15 -0.01  0.03 -0.02
   28 H    1     0.99   0.77  0.27 -0.00  0.03 -0.07
   29 C    6     4.72   2.01  0.68  0.11 -0.17  1.87  0.17 -0.04  0.26 -0.17
   30 O    8     8.79   2.01  0.82  0.99  0.16  2.76  1.86  0.20  0.01 -0.03
   31 O    8     8.63   2.01  0.84  1.03  0.18  2.72  1.75  0.13  0.01 -0.03
   32 C    6     4.41   2.01  0.68  0.07 -0.16  1.88 -0.18  0.00  0.24 -0.13
   33 O    8     8.89   2.01  0.82  1.06  0.22  2.78  1.84  0.14  0.01 -0.00
   34 N    7     7.14   2.01  0.72  0.80 -0.23  2.46  1.22  0.15  0.04 -0.03
   35 H    1     0.86   0.73  0.24 -0.01  0.06 -0.16
   36 H    1     1.04   0.76  0.27 -0.01  0.06 -0.02

       Multipole analysis of the density wrt the origin
       ------------------------------------------------

     L   x y z        total         open         nuclear
     -   - - -        -----         ----         -------
     0   0 0 0     -0.000000      0.000000    158.000000

     1   1 0 0     -0.384187      0.000000     -0.000000
     1   0 1 0      0.681841      0.000000     -0.000000
     1   0 0 1      0.399611      0.000000     -0.000000

     2   2 0 0   -112.220857      0.000000   1529.847769
     2   1 1 0     -0.015645      0.000000    -11.740066
     2   1 0 1      5.974984      0.000000     27.056138
     2   0 2 0   -114.007907      0.000000   3884.571624
     2   0 1 1     -2.951797      0.000000    -19.069330
     2   0 0 2    -85.336822      0.000000    711.849789

 ------------------------------------------------------------------------
 scf energy failed                                                                                  0
 ------------------------------------------------------------------------
 ------------------------------------------------------------------------
  current input line : 
    51: task scf energy
 ------------------------------------------------------------------------
 ------------------------------------------------------------------------
 This type of error is most commonly associated with calculations not reaching convergence criteria
 ------------------------------------------------------------------------
 For more information see the NWChem manual at https://nwchemgit.github.io


 For further details see manual section:                                                                                                                                                                                                                                                                
0:scf energy failed:Received an Error in Communication
--------------------------------------------------------------------------
MPI_ABORT was invoked on rank 0 in communicator MPI COMMUNICATOR 3 DUP FROM 0
with errorcode -1.

NOTE: invoking MPI_ABORT causes Open MPI to kill all MPI processes.
You may or may not see output from other processes, depending on
exactly when Open MPI kills them.
--------------------------------------------------------------------------
slurmstepd: error: *** STEP 6619389.110 ON nova21-swift-1 CANCELLED AT 2025-07-11T08:19:02 ***
srun: Job step aborted: Waiting up to 32 seconds for job step to finish.
srun: error: nova21-swift-1: task 0: Exited with exit code 255
srun: error: nova21-swift-1: tasks 1-7: Killed
