export TMOUT=5400
export TMPDIR=/tmp
export PTMPDIR=/tmp/ptmp
 argument  1 = inputs/ASP_GLU_5.nw



============================== echo of input deck ==============================
start ASP_GLU_5
geometry
H          6.21700       12.70100        0.14900
C          6.23600       12.67600        1.23600
H          5.33900       13.15000        1.62800
H          7.11800       13.20000        1.59800
C          6.28700       11.23700        1.71000
O          7.21300       10.87400        2.42300
N          5.32200       10.39300        1.35500
H          5.36100        9.46600        1.75200
C          4.13500       10.67100        0.52700
H          3.79300       11.68400        0.73800
C          4.50300       10.57700       -0.97100
H          5.55700       10.82900       -1.10300
H          4.37200        9.54900       -1.31300
C          3.68500       11.52300       -1.86300
O          4.12600       11.74100       -3.01300
O          2.65800       12.05600       -1.38100
C          2.97100        9.72300        0.89200
O          3.15300        8.78400        1.67200
N          1.77400        9.98800        0.36600
H          1.72500       10.75000       -0.30900
C          0.55200        9.21200        0.64000
H          0.46700        9.10600        1.72200
C         -0.67300       10.01400        0.15300
H         -0.69000       10.96800        0.68100
H         -0.53300       10.23300       -0.90700
C         -2.06200        9.36100        0.30700
H         -2.79600       10.03400       -0.14400
H         -2.09100        8.43600       -0.27300
C         -2.47200        9.06300        1.76100
O         -3.51500        9.60300        2.19300
O         -1.76900        8.26200        2.42000
C          0.59500        7.78400        0.05400
O          1.12300        7.51900       -1.02500
N         -0.00600        6.82500        0.74400
H         -0.00400        5.89100        0.37900
H         -0.52800        7.08200        1.57800
end

basis
 * library aug-cc-pvdz
end

echo

scf
 direct
end

task scf energy
================================================================================


                                         
                                         


             Northwest Computational Chemistry Package (NWChem) 7.2.0
             --------------------------------------------------------


                    Environmental Molecular Sciences Laboratory
                       Pacific Northwest National Laboratory
                                Richland, WA 99352

                              Copyright (c) 1994-2022
                       Pacific Northwest National Laboratory
                            Battelle Memorial Institute

             NWChem is an open-source computational chemistry package
                        distributed under the terms of the
                      Educational Community License (ECL) 2.0
             A copy of the license is included with this distribution
                              in the LICENSE.TXT file

                                  ACKNOWLEDGMENT
                                  --------------

            This software and its documentation were developed at the
            EMSL at Pacific Northwest National Laboratory, a multiprogram
            national laboratory, operated for the U.S. Department of Energy
            by Battelle under Contract Number DE-AC05-76RL01830. Support
            for this work was provided by the Department of Energy Office
            of Biological and Environmental Research, Office of Basic
            Energy Sciences, and the Office of Advanced Scientific Computing.


           Job information
           ---------------

    hostname        = nova21-speedy-12
    program         = /opt/rit/el9/20230413/app/linux-rhel9-x86_64_v3/gcc-11.2.1/nwchem-7.2.0-oxtctbuhfuzyfaoziquq6bki22grib3g/bin/nwchem
    date            = Fri Jul 11 10:01:44 2025

    compiled        = Wed_May_17_23:46:39_2023
    source          = /tmp/root/spack-stage/spack-stage-nwchem-7.2.0-oxtctbuhfuzyfaoziquq6bki22grib3g/spack-src
    nwchem branch   = 7.2.0
    nwchem revision = d0d141fd
    ga revision     = 5.8.0
    use scalapack   = T
    input           = inputs/ASP_GLU_5.nw
    prefix          = ASP_GLU_5.
    data base       = ./ASP_GLU_5.db
    status          = startup
    nproc           =        8
    time left       =     -1s



           Memory information
           ------------------

    heap     =   26214394 doubles =    200.0 Mbytes
    stack    =   26214399 doubles =    200.0 Mbytes
    global   =   52428800 doubles =    400.0 Mbytes (distinct from heap & stack)
    total    =  104857593 doubles =    800.0 Mbytes
    verify   = yes
    hardfail = no 


           Directory information
           ---------------------

  0 permanent = .
  0 scratch   = .




                                NWChem Input Module
                                -------------------



 Scaling coordinates for geometry "geometry" by  1.889725989
 (inverse scale =  0.529177249)

 C1  symmetry detected

          ------
          auto-z
          ------
  no constraints, skipping    0.0000000000000000     
  no constraints, skipping    0.0000000000000000     


                             Geometry "geometry" -> ""
                             -------------------------

 Output coordinates in angstroms (scale by  1.889725989 to convert to a.u.)

  No.       Tag          Charge          X              Y              Z
 ---- ---------------- ---------- -------------- -------------- --------------
    1 H                    1.0000    -0.33139745     4.85216954     1.15822351
    2 C                    6.0000     0.68388574     4.75808823     1.53624964
    3 H                    1.0000     0.70325869     4.04536534     2.35758986
    4 H                    1.0000     1.03644688     5.72772930     1.88127260
    5 C                    6.0000     1.59467936     4.26679105     0.42851318
    6 O                    8.0000     2.56560836     4.93974827     0.10907705
    7 N                    7.0000     1.33384571     3.10908931    -0.17255128
    8 H                    1.0000     2.00646549     2.78963401    -0.85371935
    9 C                    6.0000     0.22879807     2.17399386     0.10367906
   10 H                    1.0000     0.02547438     2.18208157     1.17430882
   11 C                    6.0000    -1.04555927     2.62789479    -0.64348311
   12 H                    1.0000    -1.02505404     3.71182080    -0.77204416
   13 H                    1.0000    -1.05854032     2.18511646    -1.64082349
   14 C                    6.0000    -2.34619490     2.27297044     0.09277748
   15 O                    8.0000    -3.38418810     2.86912026    -0.27010062
   16 O                    8.0000    -2.29026744     1.45047383     1.03697738
   17 C                    6.0000     0.62373395     0.72625010    -0.26359285
   18 O                    8.0000     1.68399170     0.49991819    -0.85339990
   19 N                    7.0000    -0.20053011    -0.25133889     0.11669459
   20 H                    1.0000    -1.07880864     0.02854417     0.55139254
   21 C                    6.0000     0.04284612    -1.68559758    -0.11612723
   22 H                    1.0000     1.05751325    -1.90418747     0.21831869
   23 C                    6.0000    -0.92395784    -2.50873334     0.76064846
   24 H                    1.0000    -0.74688670    -2.24731897     1.80443835
   25 H                    1.0000    -1.94298698    -2.20205302     0.51839282
   26 C                    6.0000    -0.86625235    -4.04542414     0.63941534
   27 H                    1.0000    -1.65433158    -4.45745256     1.27522169
   28 H                    1.0000    -1.11038362    -4.33492876    -0.38501279
   29 C                    6.0000     0.48459262    -4.66894315     1.03623004
   30 O                    8.0000     0.48873361    -5.49923843     1.97253426
   31 O                    8.0000     1.49921366    -4.34957524     0.37393155
   32 C                    6.0000    -0.02989381    -2.07990487    -1.60732127
   33 O                    8.0000    -0.82868033    -1.57499063    -2.39488188
   34 N                    7.0000     0.78782136    -3.03621170    -2.02421590
   35 H                    1.0000     0.75158070    -3.32026107    -2.98525054
   36 H                    1.0000     1.36433337    -3.51499270    -1.33683561

      Atomic Mass 
      ----------- 

      H                  1.007825
      C                 12.000000
      O                 15.994910
      N                 14.003070


 Effective nuclear repulsion energy (a.u.)    1723.9736088240

            Nuclear Dipole moment (a.u.) 
            ----------------------------
        X                 Y               Z
 ---------------- ---------------- ----------------
     0.0000000000     0.0000000000     0.0000000000



                                Z-matrix (autoz)
                                -------- 

 Units are Angstrom for bonds and degrees for angles

      Type          Name      I     J     K     L     M      Value
      ----------- --------  ----- ----- ----- ----- ----- ----------
    1 Stretch                  1     2                       1.08745
    2 Stretch                  2     3                       1.08763
    3 Stretch                  2     4                       1.08791
    4 Stretch                  2     5                       1.51591
    5 Stretch                  5     6                       1.22377
    6 Stretch                  5     7                       1.33026
    7 Stretch                  7     8                       1.00919
    8 Stretch                  7     9                       1.47372
    9 Stretch                  9    10                       1.08980
   10 Stretch                  9    11                       1.54540
   11 Stretch                  9    17                       1.54494
   12 Stretch                 11    12                       1.09172
   13 Stretch                 11    13                       1.09129
   14 Stretch                 11    14                       1.53613
   15 Stretch                 14    15                       1.25080
   16 Stretch                 14    16                       1.25345
   17 Stretch                 17    18                       1.23420
   18 Stretch                 17    19                       1.33406
   19 Stretch                 19    20                       1.01915
   20 Stretch                 19    21                       1.47327
   21 Stretch                 21    22                       1.09050
   22 Stretch                 21    23                       1.54305
   23 Stretch                 21    32                       1.54416
   24 Stretch                 23    24                       1.09050
   25 Stretch                 23    25                       1.09140
   26 Stretch                 23    26                       1.54255
   27 Stretch                 26    27                       1.09320
   28 Stretch                 26    28                       1.09218
   29 Stretch                 26    29                       1.53981
   30 Stretch                 29    30                       1.25143
   31 Stretch                 29    31                       1.25303
   32 Stretch                 32    33                       1.23014
   33 Stretch                 32    34                       1.32551
   34 Stretch                 34    35                       1.00279
   35 Stretch                 34    36                       1.01690
   36 Bend                     1     2     3               109.62340
   37 Bend                     1     2     4               109.61523
   38 Bend                     1     2     5               109.57028
   39 Bend                     2     5     6               119.28853
   40 Bend                     2     5     7               119.63166
   41 Bend                     3     2     4               109.80327
   42 Bend                     3     2     5               109.19273
   43 Bend                     4     2     5               109.02009
   44 Bend                     5     7     8               116.72946
   45 Bend                     5     7     9               127.91871
   46 Bend                     6     5     7               121.07751
   47 Bend                     7     9    10               108.62243
   48 Bend                     7     9    11               109.95855
   49 Bend                     7     9    17               110.99929
   50 Bend                     8     7     9               115.17755
   51 Bend                     9    11    12               109.45466
   52 Bend                     9    11    13               109.42009
   53 Bend                     9    11    14               113.49108
   54 Bend                     9    17    18               120.33526
   55 Bend                     9    17    19               117.45046
   56 Bend                    10     9    11               108.59907
   57 Bend                    10     9    17               106.74984
   58 Bend                    11     9    17               111.78327
   59 Bend                    11    14    15               116.96633
   60 Bend                    11    14    16               118.35131
   61 Bend                    12    11    13               107.18421
   62 Bend                    12    11    14               107.56256
   63 Bend                    13    11    14               109.52482
   64 Bend                    15    14    16               124.63269
   65 Bend                    17    19    20               116.92361
   66 Bend                    17    19    21               124.49069
   67 Bend                    18    17    19               122.18325
   68 Bend                    19    21    22               107.48054
   69 Bend                    19    21    23               109.02760
   70 Bend                    19    21    32               113.16745
   71 Bend                    20    19    21               118.49718
   72 Bend                    21    23    24               108.31592
   73 Bend                    21    23    25               107.99808
   74 Bend                    21    23    26               117.60200
   75 Bend                    21    32    33               122.95888
   76 Bend                    21    32    34               117.31588
   77 Bend                    22    21    23               107.56521
   78 Bend                    22    21    32               106.78712
   79 Bend                    23    21    32               112.51885
   80 Bend                    23    26    27               107.62544
   81 Bend                    23    26    28               109.23350
   82 Bend                    23    26    29               114.57978
   83 Bend                    24    23    25               107.25997
   84 Bend                    24    23    26               107.93647
   85 Bend                    25    23    26               107.30231
   86 Bend                    26    29    30               117.66992
   87 Bend                    26    29    31               118.09554
   88 Bend                    27    26    28               106.52761
   89 Bend                    27    26    29               109.26415
   90 Bend                    28    26    29               109.29765
   91 Bend                    30    29    31               124.18626
   92 Bend                    32    34    35               118.91335
   93 Bend                    32    34    36               118.47821
   94 Bend                    33    32    34               119.69287
   95 Bend                    35    34    36               122.33942
   96 Torsion                  1     2     5     6         122.25335
   97 Torsion                  1     2     5     7         -58.29256
   98 Torsion                  2     5     7     8        -175.43971
   99 Torsion                  2     5     7     9          -0.50430
  100 Torsion                  3     2     5     6        -117.67048
  101 Torsion                  3     2     5     7          61.78361
  102 Torsion                  4     2     5     6           2.29259
  103 Torsion                  4     2     5     7        -178.25331
  104 Torsion                  5     7     9    10         -35.31531
  105 Torsion                  5     7     9    11          83.39905
  106 Torsion                  5     7     9    17        -152.38655
  107 Torsion                  6     5     7     8           4.00438
  108 Torsion                  6     5     7     9         178.93979
  109 Torsion                  7     9    11    12         -28.36983
  110 Torsion                  7     9    11    13          88.80888
  111 Torsion                  7     9    11    14        -148.53273
  112 Torsion                  7     9    17    18          -7.76971
  113 Torsion                  7     9    17    19         170.24808
  114 Torsion                  8     7     9    10         139.68661
  115 Torsion                  8     7     9    11        -101.59903
  116 Torsion                  8     7     9    17          22.61537
  117 Torsion                  9    11    14    15         163.51620
  118 Torsion                  9    11    14    16         -14.04057
  119 Torsion                  9    17    19    20           5.35168
  120 Torsion                  9    17    19    21        -178.13096
  121 Torsion                 10     9    11    12          90.35889
  122 Torsion                 10     9    11    13        -152.46240
  123 Torsion                 10     9    11    14         -29.80401
  124 Torsion                 10     9    17    18        -125.98120
  125 Torsion                 10     9    17    19          52.03659
  126 Torsion                 11     9    17    18         115.40113
  127 Torsion                 11     9    17    19         -66.58108
  128 Torsion                 12    11     9    17        -152.12870
  129 Torsion                 12    11    14    15          42.28631
  130 Torsion                 12    11    14    16        -135.27047
  131 Torsion                 13    11     9    17         -34.94999
  132 Torsion                 13    11    14    15         -73.88324
  133 Torsion                 13    11    14    16         108.55998
  134 Torsion                 14    11     9    17          87.70840
  135 Torsion                 17    19    21    22          49.48897
  136 Torsion                 17    19    21    23         165.80341
  137 Torsion                 17    19    21    32         -68.16468
  138 Torsion                 18    17    19    20        -176.66974
  139 Torsion                 18    17    19    21          -0.15238
  140 Torsion                 19    21    23    24         -59.14631
  141 Torsion                 19    21    23    25          56.71327
  142 Torsion                 19    21    23    26         178.22925
  143 Torsion                 19    21    32    33         -36.54777
  144 Torsion                 19    21    32    34         145.53093
  145 Torsion                 20    19    21    22        -134.04434
  146 Torsion                 20    19    21    23         -17.72990
  147 Torsion                 20    19    21    32         108.30201
  148 Torsion                 21    23    26    27        -176.39464
  149 Torsion                 21    23    26    28         -61.11854
  150 Torsion                 21    23    26    29          61.87032
  151 Torsion                 21    32    34    35         179.13926
  152 Torsion                 21    32    34    36           4.95563
  153 Torsion                 22    21    23    24          57.11401
  154 Torsion                 22    21    23    25         172.97358
  155 Torsion                 22    21    23    26         -65.51044
  156 Torsion                 22    21    32    33        -154.60592
  157 Torsion                 22    21    32    34          27.47278
  158 Torsion                 23    21    32    33          87.59864
  159 Torsion                 23    21    32    34         -90.32267
  160 Torsion                 23    26    29    30         120.52940
  161 Torsion                 23    26    29    31         -61.89089
  162 Torsion                 24    23    21    32         174.44872
  163 Torsion                 24    23    26    27          60.78758
  164 Torsion                 24    23    26    28         176.06368
  165 Torsion                 24    23    26    29         -60.94746
  166 Torsion                 25    23    21    32         -69.69171
  167 Torsion                 25    23    26    27         -54.52015
  168 Torsion                 25    23    26    28          60.75595
  169 Torsion                 25    23    26    29        -176.25518
  170 Torsion                 26    23    21    32          51.82428
  171 Torsion                 27    26    29    30          -0.30615
  172 Torsion                 27    26    29    31         177.27355
  173 Torsion                 28    26    29    30        -116.51630
  174 Torsion                 28    26    29    31          61.06341
  175 Torsion                 33    32    34    35           1.14702
  176 Torsion                 33    32    34    36        -173.03662


            XYZ format geometry
            -------------------
    36
 geometry
 H                    -0.33139745     4.85216954     1.15822351
 C                     0.68388574     4.75808823     1.53624964
 H                     0.70325869     4.04536534     2.35758986
 H                     1.03644688     5.72772930     1.88127260
 C                     1.59467936     4.26679105     0.42851318
 O                     2.56560836     4.93974827     0.10907705
 N                     1.33384571     3.10908931    -0.17255128
 H                     2.00646549     2.78963401    -0.85371935
 C                     0.22879807     2.17399386     0.10367906
 H                     0.02547438     2.18208157     1.17430882
 C                    -1.04555927     2.62789479    -0.64348311
 H                    -1.02505404     3.71182080    -0.77204416
 H                    -1.05854032     2.18511646    -1.64082349
 C                    -2.34619490     2.27297044     0.09277748
 O                    -3.38418810     2.86912026    -0.27010062
 O                    -2.29026744     1.45047383     1.03697738
 C                     0.62373395     0.72625010    -0.26359285
 O                     1.68399170     0.49991819    -0.85339990
 N                    -0.20053011    -0.25133889     0.11669459
 H                    -1.07880864     0.02854417     0.55139254
 C                     0.04284612    -1.68559758    -0.11612723
 H                     1.05751325    -1.90418747     0.21831869
 C                    -0.92395784    -2.50873334     0.76064846
 H                    -0.74688670    -2.24731897     1.80443835
 H                    -1.94298698    -2.20205302     0.51839282
 C                    -0.86625235    -4.04542414     0.63941534
 H                    -1.65433158    -4.45745256     1.27522169
 H                    -1.11038362    -4.33492876    -0.38501279
 C                     0.48459262    -4.66894315     1.03623004
 O                     0.48873361    -5.49923843     1.97253426
 O                     1.49921366    -4.34957524     0.37393155
 C                    -0.02989381    -2.07990487    -1.60732127
 O                    -0.82868033    -1.57499063    -2.39488188
 N                     0.78782136    -3.03621170    -2.02421590
 H                     0.75158070    -3.32026107    -2.98525054
 H                     1.36433337    -3.51499270    -1.33683561

 ==============================================================================
                                internuclear distances
 ------------------------------------------------------------------------------
       center one      |      center two      | atomic units |  angstroms
 ------------------------------------------------------------------------------
    2 C                |   1 H                |     2.05499  |     1.08745
    3 H                |   2 C                |     2.05533  |     1.08763
    4 H                |   2 C                |     2.05585  |     1.08791
    5 C                |   2 C                |     2.86466  |     1.51591
    6 O                |   5 C                |     2.31259  |     1.22377
    7 N                |   5 C                |     2.51382  |     1.33026
    8 H                |   7 N                |     1.90709  |     1.00919
    9 C                |   7 N                |     2.78492  |     1.47372
   10 H                |   9 C                |     2.05941  |     1.08980
   11 C                |   9 C                |     2.92038  |     1.54540
   12 H                |  11 C                |     2.06304  |     1.09172
   13 H                |  11 C                |     2.06223  |     1.09129
   14 C                |  11 C                |     2.90287  |     1.53613
   15 O                |  14 C                |     2.36367  |     1.25080
   16 O                |  14 C                |     2.36868  |     1.25345
   17 C                |   9 C                |     2.91950  |     1.54494
   18 O                |  17 C                |     2.33230  |     1.23420
   19 N                |  17 C                |     2.52100  |     1.33406
   20 H                |  19 N                |     1.92592  |     1.01915
   21 C                |  19 N                |     2.78408  |     1.47327
   22 H                |  21 C                |     2.06074  |     1.09050
   23 C                |  21 C                |     2.91594  |     1.54305
   24 H                |  23 C                |     2.06075  |     1.09050
   25 H                |  23 C                |     2.06245  |     1.09140
   26 C                |  23 C                |     2.91499  |     1.54255
   27 H                |  26 C                |     2.06585  |     1.09320
   28 H                |  26 C                |     2.06393  |     1.09218
   29 C                |  26 C                |     2.90982  |     1.53981
   30 O                |  29 C                |     2.36486  |     1.25143
   31 O                |  29 C                |     2.36789  |     1.25303
   32 C                |  21 C                |     2.91804  |     1.54416
   33 O                |  32 C                |     2.32463  |     1.23014
   34 N                |  32 C                |     2.50485  |     1.32551
   35 H                |  34 N                |     1.89500  |     1.00279
   36 H                |  34 N                |     1.92167  |     1.01690
 ------------------------------------------------------------------------------
                         number of included internuclear distances:         35
 ==============================================================================



 ==============================================================================
                                 internuclear angles
 ------------------------------------------------------------------------------
        center 1       |       center 2       |       center 3       |  degrees
 ------------------------------------------------------------------------------
    1 H                |   2 C                |   3 H                |   109.62
    1 H                |   2 C                |   4 H                |   109.62
    1 H                |   2 C                |   5 C                |   109.57
    3 H                |   2 C                |   4 H                |   109.80
    3 H                |   2 C                |   5 C                |   109.19
    4 H                |   2 C                |   5 C                |   109.02
    2 C                |   5 C                |   6 O                |   119.29
    2 C                |   5 C                |   7 N                |   119.63
    6 O                |   5 C                |   7 N                |   121.08
    5 C                |   7 N                |   8 H                |   116.73
    5 C                |   7 N                |   9 C                |   127.92
    8 H                |   7 N                |   9 C                |   115.18
    7 N                |   9 C                |  10 H                |   108.62
    7 N                |   9 C                |  11 C                |   109.96
    7 N                |   9 C                |  17 C                |   111.00
   10 H                |   9 C                |  11 C                |   108.60
   10 H                |   9 C                |  17 C                |   106.75
   11 C                |   9 C                |  17 C                |   111.78
    9 C                |  11 C                |  12 H                |   109.45
    9 C                |  11 C                |  13 H                |   109.42
    9 C                |  11 C                |  14 C                |   113.49
   12 H                |  11 C                |  13 H                |   107.18
   12 H                |  11 C                |  14 C                |   107.56
   13 H                |  11 C                |  14 C                |   109.52
   11 C                |  14 C                |  15 O                |   116.97
   11 C                |  14 C                |  16 O                |   118.35
   15 O                |  14 C                |  16 O                |   124.63
    9 C                |  17 C                |  18 O                |   120.34
    9 C                |  17 C                |  19 N                |   117.45
   18 O                |  17 C                |  19 N                |   122.18
   17 C                |  19 N                |  20 H                |   116.92
   17 C                |  19 N                |  21 C                |   124.49
   20 H                |  19 N                |  21 C                |   118.50
   19 N                |  21 C                |  22 H                |   107.48
   19 N                |  21 C                |  23 C                |   109.03
   19 N                |  21 C                |  32 C                |   113.17
   22 H                |  21 C                |  23 C                |   107.57
   22 H                |  21 C                |  32 C                |   106.79
   23 C                |  21 C                |  32 C                |   112.52
   21 C                |  23 C                |  24 H                |   108.32
   21 C                |  23 C                |  25 H                |   108.00
   21 C                |  23 C                |  26 C                |   117.60
   24 H                |  23 C                |  25 H                |   107.26
   24 H                |  23 C                |  26 C                |   107.94
   25 H                |  23 C                |  26 C                |   107.30
   23 C                |  26 C                |  27 H                |   107.63
   23 C                |  26 C                |  28 H                |   109.23
   23 C                |  26 C                |  29 C                |   114.58
   27 H                |  26 C                |  28 H                |   106.53
   27 H                |  26 C                |  29 C                |   109.26
   28 H                |  26 C                |  29 C                |   109.30
   26 C                |  29 C                |  30 O                |   117.67
   26 C                |  29 C                |  31 O                |   118.10
   30 O                |  29 C                |  31 O                |   124.19
   21 C                |  32 C                |  33 O                |   122.96
   21 C                |  32 C                |  34 N                |   117.32
   33 O                |  32 C                |  34 N                |   119.69
   32 C                |  34 N                |  35 H                |   118.91
   32 C                |  34 N                |  36 H                |   118.48
   35 H                |  34 N                |  36 H                |   122.34
 ------------------------------------------------------------------------------
                            number of included internuclear angles:         60
 ==============================================================================



  library name resolved from: environment
  library file name is: </opt/rit/el9/20230413/app/linux-rhel9-x86_64_v3/gcc-11.2.1/nwchem-7.2.0-oxtctbuhfuzyfaoziquq6bki22grib3g/share/nwchem/libraries/>
  


 Summary of "ao basis" -> "" (cartesian)
 ------------------------------------------------------------------------------
       Tag                 Description            Shells   Functions and Types
 ---------------- ------------------------------  ------  ---------------------
 *                        aug-cc-pvdz                 on all atoms 


                      Basis "ao basis" -> "ao basis" (cartesian)
                      -----
  H (Hydrogen)
  ------------
            Exponent  Coefficients 
       -------------- ---------------------------------------------------------
  1 S  1.30100000E+01  0.019685
  1 S  1.96200000E+00  0.137977
  1 S  4.44600000E-01  0.478148

  2 S  1.22000000E-01  1.000000

  3 S  2.97400000E-02  1.000000

  4 P  7.27000000E-01  1.000000

  5 P  1.41000000E-01  1.000000

  C (Carbon)
  ----------
            Exponent  Coefficients 
       -------------- ---------------------------------------------------------
  1 S  6.66500000E+03  0.000692
  1 S  1.00000000E+03  0.005329
  1 S  2.28000000E+02  0.027077
  1 S  6.47100000E+01  0.101718
  1 S  2.10600000E+01  0.274740
  1 S  7.49500000E+00  0.448564
  1 S  2.79700000E+00  0.285074
  1 S  5.21500000E-01  0.015204

  2 S  6.66500000E+03 -0.000146
  2 S  1.00000000E+03 -0.001154
  2 S  2.28000000E+02 -0.005725
  2 S  6.47100000E+01 -0.023312
  2 S  2.10600000E+01 -0.063955
  2 S  7.49500000E+00 -0.149981
  2 S  2.79700000E+00 -0.127262
  2 S  5.21500000E-01  0.544529

  3 S  1.59600000E-01  1.000000

  4 S  4.69000000E-02  1.000000

  5 P  9.43900000E+00  0.038109
  5 P  2.00200000E+00  0.209480
  5 P  5.45600000E-01  0.508557

  6 P  1.51700000E-01  1.000000

  7 P  4.04100000E-02  1.000000

  8 D  5.50000000E-01  1.000000

  9 D  1.51000000E-01  1.000000

  O (Oxygen)
  ----------
            Exponent  Coefficients 
       -------------- ---------------------------------------------------------
  1 S  1.17200000E+04  0.000710
  1 S  1.75900000E+03  0.005470
  1 S  4.00800000E+02  0.027837
  1 S  1.13700000E+02  0.104800
  1 S  3.70300000E+01  0.283062
  1 S  1.32700000E+01  0.448719
  1 S  5.02500000E+00  0.270952
  1 S  1.01300000E+00  0.015458

  2 S  1.17200000E+04 -0.000160
  2 S  1.75900000E+03 -0.001263
  2 S  4.00800000E+02 -0.006267
  2 S  1.13700000E+02 -0.025716
  2 S  3.70300000E+01 -0.070924
  2 S  1.32700000E+01 -0.165411
  2 S  5.02500000E+00 -0.116955
  2 S  1.01300000E+00  0.557368

  3 S  3.02300000E-01  1.000000

  4 S  7.89600000E-02  1.000000

  5 P  1.77000000E+01  0.043018
  5 P  3.85400000E+00  0.228913
  5 P  1.04600000E+00  0.508728

  6 P  2.75300000E-01  1.000000

  7 P  6.85600000E-02  1.000000

  8 D  1.18500000E+00  1.000000

  9 D  3.32000000E-01  1.000000

  N (Nitrogen)
  ------------
            Exponent  Coefficients 
       -------------- ---------------------------------------------------------
  1 S  9.04600000E+03  0.000700
  1 S  1.35700000E+03  0.005389
  1 S  3.09300000E+02  0.027406
  1 S  8.77300000E+01  0.103207
  1 S  2.85600000E+01  0.278723
  1 S  1.02100000E+01  0.448540
  1 S  3.83800000E+00  0.278238
  1 S  7.46600000E-01  0.015440

  2 S  9.04600000E+03 -0.000153
  2 S  1.35700000E+03 -0.001208
  2 S  3.09300000E+02 -0.005992
  2 S  8.77300000E+01 -0.024544
  2 S  2.85600000E+01 -0.067459
  2 S  1.02100000E+01 -0.158078
  2 S  3.83800000E+00 -0.121831
  2 S  7.46600000E-01  0.549003

  3 S  2.24800000E-01  1.000000

  4 S  6.12400000E-02  1.000000

  5 P  1.35500000E+01  0.039919
  5 P  2.91700000E+00  0.217169
  5 P  7.97300000E-01  0.510319

  6 P  2.18500000E-01  1.000000

  7 P  5.61100000E-02  1.000000

  8 D  8.17000000E-01  1.000000

  9 D  2.30000000E-01  1.000000



 Summary of "ao basis" -> "ao basis" (cartesian)
 ------------------------------------------------------------------------------
       Tag                 Description            Shells   Functions and Types
 ---------------- ------------------------------  ------  ---------------------
 H                        aug-cc-pvdz                5        9   3s2p
 C                        aug-cc-pvdz                9       25   4s3p2d
 O                        aug-cc-pvdz                9       25   4s3p2d
 N                        aug-cc-pvdz                9       25   4s3p2d


                                 NWChem SCF Module
                                 -----------------



  ao basis        = "ao basis"
  functions       =   660
  atoms           =    36
  closed shells   =    79
  open shells     =     0
  charge          =   0.00
  wavefunction    = RHF 
  input vectors   = atomic
  output vectors  = ./ASP_GLU_5.movecs
  use symmetry    = F
  symmetry adapt  = F


 Summary of "ao basis" -> "ao basis" (cartesian)
 ------------------------------------------------------------------------------
       Tag                 Description            Shells   Functions and Types
 ---------------- ------------------------------  ------  ---------------------
 H                        aug-cc-pvdz                5        9   3s2p
 C                        aug-cc-pvdz                9       25   4s3p2d
 O                        aug-cc-pvdz                9       25   4s3p2d
 N                        aug-cc-pvdz                9       25   4s3p2d



 Forming initial guess at       0.8s


 !! The overlap matrix has   6 vectors deemed linearly dependent with
    eigenvalues:
 1.59D-06 2.65D-06 4.58D-06 7.01D-06 8.34D-06 9.31D-06


      Superposition of Atomic Density Guess
      -------------------------------------

 Sum of atomic energies:       -1108.10309820

      Non-variational initial energy
      ------------------------------

 Total energy =   -1120.015357
 1-e energy   =   -4940.654810
 2-e energy   =    2096.665844
 HOMO         =      -0.324480
 LUMO         =      -0.307054


 Starting SCF solution at     260.5s



 ----------------------------------------------
         Quadratically convergent ROHF

 Convergence threshold     :          1.000E-04
 Maximum no. of iterations :           30
 Final Fock-matrix accuracy:          1.000E-10
 ----------------------------------------------


              iter       energy          gnorm     gmax       time
             ----- ------------------- --------- --------- --------
                 1    -1111.7003402025  3.54D+00  2.09D-01    539.2
  Setting level-shift to   2.99 to force positive preconditioner
                 2    -1112.3796297162  1.09D+00  6.46D-02    823.3
