export TMOUT=5400
export TMPDIR=/tmp
export PTMPDIR=/tmp/ptmp
 argument  1 = inputs/ASP_ASN_5.nw



============================== echo of input deck ==============================
start ASP_ASN_5
geometry
H          6.36000        6.78900       -8.20900
C          6.76700        6.60100       -9.20000
H          6.52400        7.42600       -9.86700
H          6.36200        5.67200       -9.59600
C          8.26800        6.47800       -9.10000
O          8.99100        7.25200       -9.71300
N          8.72100        5.50400       -8.32000
H          8.05300        4.88500       -7.86800
C         10.12900        5.11500       -8.16500
H         10.76000        6.00500       -8.17500
C         10.29200        4.39400       -6.81100
H         11.35400        4.19400       -6.65200
H          9.95500        5.05500       -6.01100
C          9.50600        3.07300       -6.73500
O          8.32100        3.06300       -7.14700
O         10.12900        2.05200       -6.38000
C         10.60600        4.17300       -9.28800
O         11.74100        4.27500       -9.74900
N          9.73800        3.24200       -9.70900
H          8.87100        3.18800       -9.18300
C         10.04200        2.13800      -10.62700
H          9.15500        1.50400      -10.62500
C         10.19700        2.69900      -12.06000
H          9.55900        3.57500      -12.17500
H         11.22900        3.01400      -12.21500
C          9.80400        1.71700      -13.15200
O          8.85700        1.91500      -13.89300
N         10.49500        0.61300      -13.28700
H         10.20800       -0.02500      -14.00100
H         11.24500        0.43000      -12.62500
C         11.19700        1.22200      -10.13200
O         11.91400        0.61100      -10.92500
N         11.40400        1.08000       -8.82900
H         12.16700        0.50600       -8.51900
H         10.81400        1.54600       -8.14500
end

basis
 * library aug-cc-pvdz
end

echo

scf
 direct
end

task scf energy
================================================================================


                                         
                                         


             Northwest Computational Chemistry Package (NWChem) 7.2.0
             --------------------------------------------------------


                    Environmental Molecular Sciences Laboratory
                       Pacific Northwest National Laboratory
                                Richland, WA 99352

                              Copyright (c) 1994-2022
                       Pacific Northwest National Laboratory
                            Battelle Memorial Institute

             NWChem is an open-source computational chemistry package
                        distributed under the terms of the
                      Educational Community License (ECL) 2.0
             A copy of the license is included with this distribution
                              in the LICENSE.TXT file

                                  ACKNOWLEDGMENT
                                  --------------

            This software and its documentation were developed at the
            EMSL at Pacific Northwest National Laboratory, a multiprogram
            national laboratory, operated for the U.S. Department of Energy
            by Battelle under Contract Number DE-AC05-76RL01830. Support
            for this work was provided by the Department of Energy Office
            of Biological and Environmental Research, Office of Basic
            Energy Sciences, and the Office of Advanced Scientific Computing.


           Job information
           ---------------

    hostname        = nova21-swift-3
    program         = /opt/rit/el9/20230413/app/linux-rhel9-x86_64_v3/gcc-11.2.1/nwchem-7.2.0-oxtctbuhfuzyfaoziquq6bki22grib3g/bin/nwchem
    date            = Thu Jul 10 17:10:02 2025

    compiled        = Wed_May_17_23:46:39_2023
    source          = /tmp/root/spack-stage/spack-stage-nwchem-7.2.0-oxtctbuhfuzyfaoziquq6bki22grib3g/spack-src
    nwchem branch   = 7.2.0
    nwchem revision = d0d141fd
    ga revision     = 5.8.0
    use scalapack   = T
    input           = inputs/ASP_ASN_5.nw
    prefix          = ASP_ASN_5.
    data base       = ./ASP_ASN_5.db
    status          = startup
    nproc           =        8
    time left       =     -1s



           Memory information
           ------------------

    heap     =   26214394 doubles =    200.0 Mbytes
    stack    =   26214399 doubles =    200.0 Mbytes
    global   =   52428800 doubles =    400.0 Mbytes (distinct from heap & stack)
    total    =  104857593 doubles =    800.0 Mbytes
    verify   = yes
    hardfail = no 


           Directory information
           ---------------------

  0 permanent = .
  0 scratch   = .




                                NWChem Input Module
                                -------------------



 Scaling coordinates for geometry "geometry" by  1.889725989
 (inverse scale =  0.529177249)

 C1  symmetry detected

          ------
          auto-z
          ------
  no constraints, skipping    0.0000000000000000     
  no constraints, skipping    0.0000000000000000     


                             Geometry "geometry" -> ""
                             -------------------------

 Output coordinates in angstroms (scale by  1.889725989 to convert to a.u.)

  No.       Tag          Charge          X              Y              Z
 ---- ---------------- ---------- -------------- -------------- --------------
    1 H                    1.0000    -2.37074156    -4.24692634    -1.54288972
    2 C                    6.0000    -2.79757792    -3.32620622    -1.15153415
    3 H                    1.0000    -3.83882249    -3.48371736    -0.87664695
    4 H                    1.0000    -2.72612150    -2.53856472    -1.89879370
    5 C                    6.0000    -2.02486025    -2.90874509     0.07596885
    6 O                    8.0000    -2.59203380    -2.80931211     1.15578423
    7 N                    7.0000    -0.73088454    -2.67290366    -0.10372726
    8 H                    1.0000    -0.34229353    -2.75016118    -1.04005909
    9 C                    6.0000     0.19162785    -2.14014151     0.90768036
   10 H                    1.0000    -0.05115858    -2.56011625     1.88494028
   11 C                    6.0000     1.62876984    -2.54883055     0.52385464
   12 H                    1.0000     2.30186076    -2.23871807     1.32629085
   13 H                    1.0000     1.68283301    -3.63582651     0.44635014
   14 C                    6.0000     2.09602488    -1.92721384    -0.80425620
   15 O                    8.0000     1.30966030    -1.95473010    -1.78146785
   16 O                    8.0000     3.18608472    -1.32028356    -0.80382630
   17 C                    6.0000     0.12535219    -0.60374243     1.01307194
   18 O                    8.0000     0.21843057    -0.04786749     2.10554137
   19 N                    7.0000    -0.01488393     0.07786864    -0.13286270
   20 H                    1.0000     0.02408467    -0.48297261    -0.97856923
   21 C                    6.0000     0.08292382     1.53459926    -0.28228000
   22 H                    1.0000     0.06792255     1.71952522    -1.35666650
   23 C                    6.0000    -1.18623121     2.19080195     0.31007000
   24 H                    1.0000    -2.03035233     1.51114706     0.19529293
   25 H                    1.0000    -1.03911604     2.36458363     1.37610520
   26 C                    6.0000    -1.57445326     3.49836055    -0.36135471
   27 O                    8.0000    -2.61155683     3.62289015    -0.98905096
   28 N                    7.0000    -0.75718533     4.51799202    -0.27800736
   29 H                    1.0000    -1.02597482     5.36211318    -0.74106316
   30 H                    1.0000     0.13233336     4.38497895     0.19664726
   31 C                    6.0000     1.43742737     2.11757218     0.21124681
   32 O                    8.0000     1.52025125     3.26851037     0.64106130
   33 N                    7.0000     2.53060081     1.36774830     0.15159799
   34 H                    1.0000     3.39578015     1.74375224     0.49486282
   35 H                    1.0000     2.50552762     0.42358175    -0.22394542

      Atomic Mass 
      ----------- 

      H                  1.007825
      C                 12.000000
      O                 15.994910
      N                 14.003070


 Effective nuclear repulsion energy (a.u.)    1682.2938863754

            Nuclear Dipole moment (a.u.) 
            ----------------------------
        X                 Y               Z
 ---------------- ---------------- ----------------
    -0.0000000000     0.0000000000     0.0000000000



                                Z-matrix (autoz)
                                -------- 

 Units are Angstrom for bonds and degrees for angles

      Type          Name      I     J     K     L     M      Value
      ----------- --------  ----- ----- ----- ----- ----- ----------
    1 Stretch                  1     2                       1.08769
    2 Stretch                  2     3                       1.08838
    3 Stretch                  2     4                       1.08806
    4 Stretch                  2     5                       1.50935
    5 Stretch                  5     6                       1.22375
    6 Stretch                  5     7                       1.32751
    7 Stretch                  7     8                       1.01670
    8 Stretch                  7     9                       1.46895
    9 Stretch                  9    10                       1.09104
   10 Stretch                  9    11                       1.54264
   11 Stretch                  9    17                       1.54144
   12 Stretch                 11    12                       1.09230
   13 Stretch                 11    13                       1.09110
   14 Stretch                 11    14                       1.53903
   15 Stretch                 14    15                       1.25462
   16 Stretch                 14    16                       1.24764
   17 Stretch                 17    18                       1.22929
   18 Stretch                 17    19                       1.34068
   19 Stretch                 19    20                       1.01552
   20 Stretch                 19    21                       1.46764
   21 Stretch                 21    22                       1.09029
   22 Stretch                 21    23                       1.54669
   23 Stretch                 21    31                       1.55503
   24 Stretch                 23    24                       1.08979
   25 Stretch                 23    25                       1.09008
   26 Stretch                 23    26                       1.52028
   27 Stretch                 26    27                       1.21864
   28 Stretch                 26    28                       1.30940
   29 Stretch                 28    29                       0.99960
   30 Stretch                 28    30                       1.01697
   31 Stretch                 31    32                       1.23136
   32 Stretch                 31    33                       1.32696
   33 Stretch                 33    34                       1.00387
   34 Stretch                 33    35                       1.01642
   35 Bend                     1     2     3               110.10852
   36 Bend                     1     2     4               109.87021
   37 Bend                     1     2     5               109.01639
   38 Bend                     2     5     6               120.18593
   39 Bend                     2     5     7               115.98096
   40 Bend                     3     2     4               109.94080
   41 Bend                     3     2     5               108.92974
   42 Bend                     4     2     5               108.94719
   43 Bend                     5     7     8               118.92823
   44 Bend                     5     7     9               125.68836
   45 Bend                     6     5     7               123.83263
   46 Bend                     7     9    10               109.71645
   47 Bend                     7     9    11               108.52170
   48 Bend                     7     9    17               112.43108
   49 Bend                     8     7     9               114.93728
   50 Bend                     9    11    12               108.42564
   51 Bend                     9    11    13               109.13339
   52 Bend                     9    11    14               112.98866
   53 Bend                     9    17    18               120.54548
   54 Bend                     9    17    19               116.92362
   55 Bend                    10     9    11               109.15929
   56 Bend                    10     9    17               108.23192
   57 Bend                    11     9    17               108.73134
   58 Bend                    11    14    15               118.22901
   59 Bend                    11    14    16               117.48039
   60 Bend                    12    11    13               107.72752
   61 Bend                    12    11    14               109.40204
   62 Bend                    13    11    14               109.02871
   63 Bend                    15    14    16               123.95569
   64 Bend                    17    19    20               115.27864
   65 Bend                    17    19    21               125.78020
   66 Bend                    18    17    19               122.52252
   67 Bend                    19    21    22               105.53089
   68 Bend                    19    21    23               109.11322
   69 Bend                    19    21    31               113.44372
   70 Bend                    20    19    21               117.44035
   71 Bend                    21    23    24               109.30857
   72 Bend                    21    23    25               109.35544
   73 Bend                    21    23    26               113.90997
   74 Bend                    21    31    32               121.31746
   75 Bend                    21    31    33               119.43772
   76 Bend                    22    21    23               107.10622
   77 Bend                    22    21    31               105.13797
   78 Bend                    23    21    31               115.73112
   79 Bend                    23    26    27               122.18759
   80 Bend                    23    26    28               118.83234
   81 Bend                    24    23    25               107.87587
   82 Bend                    24    23    26               106.98270
   83 Bend                    25    23    26               109.22347
   84 Bend                    26    28    29               117.40389
   85 Bend                    26    28    30               118.28075
   86 Bend                    27    26    28               118.97242
   87 Bend                    29    28    30               124.18411
   88 Bend                    31    33    34               118.88055
   89 Bend                    31    33    35               121.41186
   90 Bend                    32    31    33               119.23814
   91 Bend                    34    33    35               119.70471
   92 Torsion                  1     2     5     6        -119.65195
   93 Torsion                  1     2     5     7          60.10653
   94 Torsion                  2     5     7     8           2.14786
   95 Torsion                  2     5     7     9         174.07318
   96 Torsion                  3     2     5     6           0.52258
   97 Torsion                  3     2     5     7        -179.71894
   98 Torsion                  4     2     5     6         120.45240
   99 Torsion                  4     2     5     7         -59.78913
  100 Torsion                  5     7     9    10          37.89654
  101 Torsion                  5     7     9    11         157.08876
  102 Torsion                  5     7     9    17         -82.60037
  103 Torsion                  6     5     7     8        -178.10347
  104 Torsion                  6     5     7     9          -6.17816
  105 Torsion                  7     9    11    12        -174.43909
  106 Torsion                  7     9    11    13         -57.35536
  107 Torsion                  7     9    11    14          64.11530
  108 Torsion                  7     9    17    18         142.25969
  109 Torsion                  7     9    17    19         -38.76731
  110 Torsion                  8     7     9    10        -149.89547
  111 Torsion                  8     7     9    11         -30.70325
  112 Torsion                  8     7     9    17          89.60762
  113 Torsion                  9    11    14    15         -45.44726
  114 Torsion                  9    11    14    16         128.17406
  115 Torsion                  9    17    19    20          -5.58044
  116 Torsion                  9    17    19    21        -171.16808
  117 Torsion                 10     9    11    12         -54.89745
  118 Torsion                 10     9    11    13          62.18628
  119 Torsion                 10     9    11    14        -176.34306
  120 Torsion                 10     9    17    18          20.91068
  121 Torsion                 10     9    17    19        -160.11632
  122 Torsion                 11     9    17    18         -97.55060
  123 Torsion                 11     9    17    19          81.42241
  124 Torsion                 12    11     9    17          62.97777
  125 Torsion                 12    11    14    15        -166.33976
  126 Torsion                 12    11    14    16           7.28156
  127 Torsion                 13    11     9    17        -179.93850
  128 Torsion                 13    11    14    15          76.08249
  129 Torsion                 13    11    14    16        -110.29620
  130 Torsion                 14    11     9    17         -58.46784
  131 Torsion                 17    19    21    22         171.66792
  132 Torsion                 17    19    21    23         -73.53485
  133 Torsion                 17    19    21    31          57.08937
  134 Torsion                 18    17    19    20         173.37058
  135 Torsion                 18    17    19    21           7.78294
  136 Torsion                 19    21    23    24         -30.51889
  137 Torsion                 19    21    23    25          87.37340
  138 Torsion                 19    21    23    26        -150.11458
  139 Torsion                 19    21    31    32        -151.66803
  140 Torsion                 19    21    31    33          29.27913
  141 Torsion                 20    19    21    22           6.35837
  142 Torsion                 20    19    21    23         121.15560
  143 Torsion                 20    19    21    31        -108.22019
  144 Torsion                 21    23    26    27         115.12611
  145 Torsion                 21    23    26    28         -63.85744
  146 Torsion                 21    31    33    34        -178.40114
  147 Torsion                 21    31    33    35           0.98026
  148 Torsion                 22    21    23    24          83.25617
  149 Torsion                 22    21    23    25        -158.85154
  150 Torsion                 22    21    23    26         -36.33952
  151 Torsion                 22    21    31    32          93.51911
  152 Torsion                 22    21    31    33         -85.53372
  153 Torsion                 23    21    31    32         -24.42684
  154 Torsion                 23    21    31    33         156.52033
  155 Torsion                 23    26    28    29         178.92854
  156 Torsion                 23    26    28    30           2.91702
  157 Torsion                 24    23    21    31        -159.89567
  158 Torsion                 24    23    26    27          -5.77681
  159 Torsion                 24    23    26    28         175.23964
  160 Torsion                 25    23    21    31         -42.00338
  161 Torsion                 25    23    26    27        -122.28951
  162 Torsion                 25    23    26    28          58.72695
  163 Torsion                 26    23    21    31          80.50864
  164 Torsion                 27    26    28    29          -0.08817
  165 Torsion                 27    26    28    30        -176.09969
  166 Torsion                 32    31    33    34           2.52616
  167 Torsion                 32    31    33    35        -178.09244


            XYZ format geometry
            -------------------
    35
 geometry
 H                    -2.37074156    -4.24692634    -1.54288972
 C                    -2.79757792    -3.32620622    -1.15153415
 H                    -3.83882249    -3.48371736    -0.87664695
 H                    -2.72612150    -2.53856472    -1.89879370
 C                    -2.02486025    -2.90874509     0.07596885
 O                    -2.59203380    -2.80931211     1.15578423
 N                    -0.73088454    -2.67290366    -0.10372726
 H                    -0.34229353    -2.75016118    -1.04005909
 C                     0.19162785    -2.14014151     0.90768036
 H                    -0.05115858    -2.56011625     1.88494028
 C                     1.62876984    -2.54883055     0.52385464
 H                     2.30186076    -2.23871807     1.32629085
 H                     1.68283301    -3.63582651     0.44635014
 C                     2.09602488    -1.92721384    -0.80425620
 O                     1.30966030    -1.95473010    -1.78146785
 O                     3.18608472    -1.32028356    -0.80382630
 C                     0.12535219    -0.60374243     1.01307194
 O                     0.21843057    -0.04786749     2.10554137
 N                    -0.01488393     0.07786864    -0.13286270
 H                     0.02408467    -0.48297261    -0.97856923
 C                     0.08292382     1.53459926    -0.28228000
 H                     0.06792255     1.71952522    -1.35666650
 C                    -1.18623121     2.19080195     0.31007000
 H                    -2.03035233     1.51114706     0.19529293
 H                    -1.03911604     2.36458363     1.37610520
 C                    -1.57445326     3.49836055    -0.36135471
 O                    -2.61155683     3.62289015    -0.98905096
 N                    -0.75718533     4.51799202    -0.27800736
 H                    -1.02597482     5.36211318    -0.74106316
 H                     0.13233336     4.38497895     0.19664726
 C                     1.43742737     2.11757218     0.21124681
 O                     1.52025125     3.26851037     0.64106130
 N                     2.53060081     1.36774830     0.15159799
 H                     3.39578015     1.74375224     0.49486282
 H                     2.50552762     0.42358175    -0.22394542

 ==============================================================================
                                internuclear distances
 ------------------------------------------------------------------------------
       center one      |      center two      | atomic units |  angstroms
 ------------------------------------------------------------------------------
    2 C                |   1 H                |     2.05544  |     1.08769
    3 H                |   2 C                |     2.05673  |     1.08838
    4 H                |   2 C                |     2.05614  |     1.08806
    5 C                |   2 C                |     2.85225  |     1.50935
    6 O                |   5 C                |     2.31256  |     1.22375
    7 N                |   5 C                |     2.50863  |     1.32751
    8 H                |   7 N                |     1.92129  |     1.01670
    9 C                |   7 N                |     2.77591  |     1.46895
   10 H                |   9 C                |     2.06176  |     1.09104
   11 C                |   9 C                |     2.91516  |     1.54264
   12 H                |  11 C                |     2.06415  |     1.09230
   13 H                |  11 C                |     2.06187  |     1.09110
   14 C                |  11 C                |     2.90834  |     1.53903
   15 O                |  14 C                |     2.37089  |     1.25462
   16 O                |  14 C                |     2.35769  |     1.24764
   17 C                |   9 C                |     2.91289  |     1.54144
   18 O                |  17 C                |     2.32302  |     1.22929
   19 N                |  17 C                |     2.53352  |     1.34068
   20 H                |  19 N                |     1.91905  |     1.01552
   21 C                |  19 N                |     2.77343  |     1.46764
   22 H                |  21 C                |     2.06035  |     1.09029
   23 C                |  21 C                |     2.92281  |     1.54669
   24 H                |  23 C                |     2.05941  |     1.08979
   25 H                |  23 C                |     2.05995  |     1.09008
   26 C                |  23 C                |     2.87290  |     1.52028
   27 O                |  26 C                |     2.30290  |     1.21864
   28 N                |  26 C                |     2.47440  |     1.30940
   29 H                |  28 N                |     1.88898  |     0.99960
   30 H                |  28 N                |     1.92180  |     1.01697
   31 C                |  21 C                |     2.93857  |     1.55503
   32 O                |  31 C                |     2.32694  |     1.23136
   33 N                |  31 C                |     2.50759  |     1.32696
   34 H                |  33 N                |     1.89703  |     1.00387
   35 H                |  33 N                |     1.92076  |     1.01642
 ------------------------------------------------------------------------------
                         number of included internuclear distances:         34
 ==============================================================================



 ==============================================================================
                                 internuclear angles
 ------------------------------------------------------------------------------
        center 1       |       center 2       |       center 3       |  degrees
 ------------------------------------------------------------------------------
    1 H                |   2 C                |   3 H                |   110.11
    1 H                |   2 C                |   4 H                |   109.87
    1 H                |   2 C                |   5 C                |   109.02
    3 H                |   2 C                |   4 H                |   109.94
    3 H                |   2 C                |   5 C                |   108.93
    4 H                |   2 C                |   5 C                |   108.95
    2 C                |   5 C                |   6 O                |   120.19
    2 C                |   5 C                |   7 N                |   115.98
    6 O                |   5 C                |   7 N                |   123.83
    5 C                |   7 N                |   8 H                |   118.93
    5 C                |   7 N                |   9 C                |   125.69
    8 H                |   7 N                |   9 C                |   114.94
    7 N                |   9 C                |  10 H                |   109.72
    7 N                |   9 C                |  11 C                |   108.52
    7 N                |   9 C                |  17 C                |   112.43
   10 H                |   9 C                |  11 C                |   109.16
   10 H                |   9 C                |  17 C                |   108.23
   11 C                |   9 C                |  17 C                |   108.73
    9 C                |  11 C                |  12 H                |   108.43
    9 C                |  11 C                |  13 H                |   109.13
    9 C                |  11 C                |  14 C                |   112.99
   12 H                |  11 C                |  13 H                |   107.73
   12 H                |  11 C                |  14 C                |   109.40
   13 H                |  11 C                |  14 C                |   109.03
   11 C                |  14 C                |  15 O                |   118.23
   11 C                |  14 C                |  16 O                |   117.48
   15 O                |  14 C                |  16 O                |   123.96
    9 C                |  17 C                |  18 O                |   120.55
    9 C                |  17 C                |  19 N                |   116.92
   18 O                |  17 C                |  19 N                |   122.52
   17 C                |  19 N                |  20 H                |   115.28
   17 C                |  19 N                |  21 C                |   125.78
   20 H                |  19 N                |  21 C                |   117.44
   19 N                |  21 C                |  22 H                |   105.53
   19 N                |  21 C                |  23 C                |   109.11
   19 N                |  21 C                |  31 C                |   113.44
   22 H                |  21 C                |  23 C                |   107.11
   22 H                |  21 C                |  31 C                |   105.14
   23 C                |  21 C                |  31 C                |   115.73
   21 C                |  23 C                |  24 H                |   109.31
   21 C                |  23 C                |  25 H                |   109.36
   21 C                |  23 C                |  26 C                |   113.91
   24 H                |  23 C                |  25 H                |   107.88
   24 H                |  23 C                |  26 C                |   106.98
   25 H                |  23 C                |  26 C                |   109.22
   23 C                |  26 C                |  27 O                |   122.19
   23 C                |  26 C                |  28 N                |   118.83
   27 O                |  26 C                |  28 N                |   118.97
   26 C                |  28 N                |  29 H                |   117.40
   26 C                |  28 N                |  30 H                |   118.28
   29 H                |  28 N                |  30 H                |   124.18
   21 C                |  31 C                |  32 O                |   121.32
   21 C                |  31 C                |  33 N                |   119.44
   32 O                |  31 C                |  33 N                |   119.24
   31 C                |  33 N                |  34 H                |   118.88
   31 C                |  33 N                |  35 H                |   121.41
   34 H                |  33 N                |  35 H                |   119.70
 ------------------------------------------------------------------------------
                            number of included internuclear angles:         57
 ==============================================================================



  library name resolved from: environment
  library file name is: </opt/rit/el9/20230413/app/linux-rhel9-x86_64_v3/gcc-11.2.1/nwchem-7.2.0-oxtctbuhfuzyfaoziquq6bki22grib3g/share/nwchem/libraries/>
  


 Summary of "ao basis" -> "" (cartesian)
 ------------------------------------------------------------------------------
       Tag                 Description            Shells   Functions and Types
 ---------------- ------------------------------  ------  ---------------------
 *                        aug-cc-pvdz                 on all atoms 


                      Basis "ao basis" -> "ao basis" (cartesian)
                      -----
  H (Hydrogen)
  ------------
            Exponent  Coefficients 
       -------------- ---------------------------------------------------------
  1 S  1.30100000E+01  0.019685
  1 S  1.96200000E+00  0.137977
  1 S  4.44600000E-01  0.478148

  2 S  1.22000000E-01  1.000000

  3 S  2.97400000E-02  1.000000

  4 P  7.27000000E-01  1.000000

  5 P  1.41000000E-01  1.000000

  C (Carbon)
  ----------
            Exponent  Coefficients 
       -------------- ---------------------------------------------------------
  1 S  6.66500000E+03  0.000692
  1 S  1.00000000E+03  0.005329
  1 S  2.28000000E+02  0.027077
  1 S  6.47100000E+01  0.101718
  1 S  2.10600000E+01  0.274740
  1 S  7.49500000E+00  0.448564
  1 S  2.79700000E+00  0.285074
  1 S  5.21500000E-01  0.015204

  2 S  6.66500000E+03 -0.000146
  2 S  1.00000000E+03 -0.001154
  2 S  2.28000000E+02 -0.005725
  2 S  6.47100000E+01 -0.023312
  2 S  2.10600000E+01 -0.063955
  2 S  7.49500000E+00 -0.149981
  2 S  2.79700000E+00 -0.127262
  2 S  5.21500000E-01  0.544529

  3 S  1.59600000E-01  1.000000

  4 S  4.69000000E-02  1.000000

  5 P  9.43900000E+00  0.038109
  5 P  2.00200000E+00  0.209480
  5 P  5.45600000E-01  0.508557

  6 P  1.51700000E-01  1.000000

  7 P  4.04100000E-02  1.000000

  8 D  5.50000000E-01  1.000000

  9 D  1.51000000E-01  1.000000

  O (Oxygen)
  ----------
            Exponent  Coefficients 
       -------------- ---------------------------------------------------------
  1 S  1.17200000E+04  0.000710
  1 S  1.75900000E+03  0.005470
  1 S  4.00800000E+02  0.027837
  1 S  1.13700000E+02  0.104800
  1 S  3.70300000E+01  0.283062
  1 S  1.32700000E+01  0.448719
  1 S  5.02500000E+00  0.270952
  1 S  1.01300000E+00  0.015458

  2 S  1.17200000E+04 -0.000160
  2 S  1.75900000E+03 -0.001263
  2 S  4.00800000E+02 -0.006267
  2 S  1.13700000E+02 -0.025716
  2 S  3.70300000E+01 -0.070924
  2 S  1.32700000E+01 -0.165411
  2 S  5.02500000E+00 -0.116955
  2 S  1.01300000E+00  0.557368

  3 S  3.02300000E-01  1.000000

  4 S  7.89600000E-02  1.000000

  5 P  1.77000000E+01  0.043018
  5 P  3.85400000E+00  0.228913
  5 P  1.04600000E+00  0.508728

  6 P  2.75300000E-01  1.000000

  7 P  6.85600000E-02  1.000000

  8 D  1.18500000E+00  1.000000

  9 D  3.32000000E-01  1.000000

  N (Nitrogen)
  ------------
            Exponent  Coefficients 
       -------------- ---------------------------------------------------------
  1 S  9.04600000E+03  0.000700
  1 S  1.35700000E+03  0.005389
  1 S  3.09300000E+02  0.027406
  1 S  8.77300000E+01  0.103207
  1 S  2.85600000E+01  0.278723
  1 S  1.02100000E+01  0.448540
  1 S  3.83800000E+00  0.278238
  1 S  7.46600000E-01  0.015440

  2 S  9.04600000E+03 -0.000153
  2 S  1.35700000E+03 -0.001208
  2 S  3.09300000E+02 -0.005992
  2 S  8.77300000E+01 -0.024544
  2 S  2.85600000E+01 -0.067459
  2 S  1.02100000E+01 -0.158078
  2 S  3.83800000E+00 -0.121831
  2 S  7.46600000E-01  0.549003

  3 S  2.24800000E-01  1.000000

  4 S  6.12400000E-02  1.000000

  5 P  1.35500000E+01  0.039919
  5 P  2.91700000E+00  0.217169
  5 P  7.97300000E-01  0.510319

  6 P  2.18500000E-01  1.000000

  7 P  5.61100000E-02  1.000000

  8 D  8.17000000E-01  1.000000

  9 D  2.30000000E-01  1.000000



 Summary of "ao basis" -> "ao basis" (cartesian)
 ------------------------------------------------------------------------------
       Tag                 Description            Shells   Functions and Types
 ---------------- ------------------------------  ------  ---------------------
 H                        aug-cc-pvdz                5        9   3s2p
 C                        aug-cc-pvdz                9       25   4s3p2d
 O                        aug-cc-pvdz                9       25   4s3p2d
 N                        aug-cc-pvdz                9       25   4s3p2d


 ------------------------------------------------------------------------
 scf: no. of closed-shell electrons is not even!                   0
 ------------------------------------------------------------------------
 ------------------------------------------------------------------------
  current input line : 
 scf: no. of closed-shell electrons is not even!                   0
 ------------------------------------------------------------------------
 ------------------------------------------------------------------------
  current input line : 
     0: 
 ------------------------------------------------------------------------
 scf: no. of closed-shell electrons is not even!                   0
 ------------------------------------------------------------------------
 ------------------------------------------------------------------------
  current input line : 
     0: 
 ------------------------------------------------------------------------
 ------------------------------------------------------------------------
 There is an error in the input file
 scf: no. of closed-shell electrons is not even!                   0
 ------------------------------------------------------------------------
 ------------------------------------------------------------------------
  current input line : 
     0: 
 ------------------------------------------------------------------------
 ------------------------------------------------------------------------
 There is an error in the input file
 ------------------------------------------------------------------------
 For more information see the NWChem manual at https://nwchemgit.github.io


 For further details see manual section:                                                                                                                                                                                                                                                                
 scf: no. of closed-shell electrons is not even!                   0
 ------------------------------------------------------------------------
 ------------------------------------------------------------------------
  current input line : 
     0: 
 ------------------------------------------------------------------------
 ------------------------------------------------------------------------
 There is an error in the input file
 ------------------------------------------------------------------------
 For more information see the NWChem manual at https://nwchemgit.github.io


 For further details see manual section:                                                                                                                                                                                                                                                                
 scf: no. of closed-shell electrons is not even!                   0
 ------------------------------------------------------------------------
 ------------------------------------------------------------------------
  current input line : 
     0: 
 ------------------------------------------------------------------------
 ------------------------------------------------------------------------
 There is an error in the input file
 ------------------------------------------------------------------------
 For more information see the NWChem manual at https://nwchemgit.github.io


 For further details see manual section:                                                                                                                                                                                                                                                                
 scf: no. of closed-shell electrons is not even!                   0
 ------------------------------------------------------------------------
 ------------------------------------------------------------------------
  current input line : 
     0: 
 ------------------------------------------------------------------------
 ------------------------------------------------------------------------
 There is an error in the input file
 ------------------------------------------------------------------------
 For more information see the NWChem manual at https://nwchemgit.github.io


 For further details see manual section:                                                                                                                                                                                                                                                                
     0: 
 ------------------------------------------------------------------------
 ------------------------------------------------------------------------
 There is an error in the input file
 ------------------------------------------------------------------------
 For more information see the NWChem manual at https://nwchemgit.github.io


 For further details see manual section:                                                                                                                                                                                                                                                                
1:scf: no. of closed-shell electrons is not even!:Received an Error in Communication
 ------------------------------------------------------------------------
 There is an error in the input file
 ------------------------------------------------------------------------
 For more information see the NWChem manual at https://nwchemgit.github.io


 For further details see manual section:                                                                                                                                                                                                                                                                
2:scf: no. of closed-shell electrons is not even!:Received an Error in Communication
 ------------------------------------------------------------------------
 For more information see the NWChem manual at https://nwchemgit.github.io


 For further details see manual section:                                                                                                                                                                                                                                                                
3:scf: no. of closed-shell electrons is not even!:Received an Error in Communication
4:scf: no. of closed-shell electrons is not even!:Received an Error in Communication
5:scf: no. of closed-shell electrons is not even!:Received an Error in Communication
6:scf: no. of closed-shell electrons is not even!:Received an Error in Communication
7:scf: no. of closed-shell electrons is not even!:Received an Error in Communication
 scf: no. of closed-shell electrons is not even!                   0
 ------------------------------------------------------------------------
 ------------------------------------------------------------------------
  current input line : 
    50: task scf energy
 ------------------------------------------------------------------------
 ------------------------------------------------------------------------
 There is an error in the input file
 ------------------------------------------------------------------------
 For more information see the NWChem manual at https://nwchemgit.github.io


 For further details see manual section:                                                                                                                                                                                                                                                                
0:scf: no. of closed-shell electrons is not even!:Received an Error in Communication
--------------------------------------------------------------------------
MPI_ABORT was invoked on rank 6 in communicator MPI COMMUNICATOR 3 DUP FROM 0
with errorcode -1.

NOTE: invoking MPI_ABORT causes Open MPI to kill all MPI processes.
You may or may not see output from other processes, depending on
exactly when Open MPI kills them.
--------------------------------------------------------------------------
--------------------------------------------------------------------------
MPI_ABORT was invoked on rank 7 in communicator MPI COMMUNICATOR 3 DUP FROM 0
with errorcode -1.

NOTE: invoking MPI_ABORT causes Open MPI to kill all MPI processes.
You may or may not see output from other processes, depending on
exactly when Open MPI kills them.
--------------------------------------------------------------------------
--------------------------------------------------------------------------
MPI_ABORT was invoked on rank 0 in communicator MPI COMMUNICATOR 3 DUP FROM 0
with errorcode -1.

NOTE: invoking MPI_ABORT causes Open MPI to kill all MPI processes.
You may or may not see output from other processes, depending on
exactly when Open MPI kills them.
--------------------------------------------------------------------------
--------------------------------------------------------------------------
MPI_ABORT was invoked on rank 1 in communicator MPI COMMUNICATOR 3 DUP FROM 0
with errorcode -1.

NOTE: invoking MPI_ABORT causes Open MPI to kill all MPI processes.
You may or may not see output from other processes, depending on
exactly when Open MPI kills them.
--------------------------------------------------------------------------
--------------------------------------------------------------------------
MPI_ABORT was invoked on rank 2 in communicator MPI COMMUNICATOR 3 DUP FROM 0
with errorcode -1.

NOTE: invoking MPI_ABORT causes Open MPI to kill all MPI processes.
You may or may not see output from other processes, depending on
exactly when Open MPI kills them.
--------------------------------------------------------------------------
--------------------------------------------------------------------------
MPI_ABORT was invoked on rank 3 in communicator MPI COMMUNICATOR 3 DUP FROM 0
with errorcode -1.

NOTE: invoking MPI_ABORT causes Open MPI to kill all MPI processes.
You may or may not see output from other processes, depending on
exactly when Open MPI kills them.
--------------------------------------------------------------------------
--------------------------------------------------------------------------
MPI_ABORT was invoked on rank 5 in communicator MPI COMMUNICATOR 3 DUP FROM 0
with errorcode -1.

NOTE: invoking MPI_ABORT causes Open MPI to kill all MPI processes.
You may or may not see output from other processes, depending on
exactly when Open MPI kills them.
--------------------------------------------------------------------------
--------------------------------------------------------------------------
MPI_ABORT was invoked on rank 4 in communicator MPI COMMUNICATOR 3 DUP FROM 0
with errorcode -1.

NOTE: invoking MPI_ABORT causes Open MPI to kill all MPI processes.
You may or may not see output from other processes, depending on
exactly when Open MPI kills them.
--------------------------------------------------------------------------
slurmstepd: error: *** STEP 6619389.94 ON nova21-swift-3 CANCELLED AT 2025-07-10T17:10:02 ***
srun: Job step aborted: Waiting up to 32 seconds for job step to finish.
slurmstepd: error: --task-epilog failed status=9
srun: error: nova21-swift-3: tasks 0-6: Killed
srun: error: nova21-swift-3: task 7: Exited with exit code 255
