export TMOUT=5400
export TMPDIR=/tmp
export PTMPDIR=/tmp/ptmp
 argument  1 = inputs/ASP_GLU_4.nw



============================== echo of input deck ==============================
start ASP_GLU_4
geometry
H         -6.16300        8.84400        2.22900
C         -5.56100        8.22100        1.57200
H         -5.54300        8.64500        0.56900
H         -5.95800        7.20900        1.53700
C         -4.14600        8.17800        2.09300
O         -3.84200        8.81500        3.09600
N         -3.30800        7.40500        1.41300
H         -3.66100        6.87900        0.61900
C         -1.85500        7.32400        1.59100
H         -1.58400        7.75900        2.55300
C         -1.41300        5.84400        1.59800
H         -0.32400        5.80400        1.53600
H         -1.69400        5.42500        2.56600
C         -2.01000        4.93000        0.50700
O         -1.74700        3.71000        0.60000
O         -2.74000        5.42400       -0.38700
C         -1.10700        8.13700        0.51500
O         -0.23200        8.93800        0.84700
N         -1.47800        7.97400       -0.75700
H         -2.14100        7.22600       -0.94600
C         -1.09700        8.86600       -1.86400
H         -0.04400        9.12600       -1.74500
C         -1.24600        8.10900       -3.20100
H         -0.53300        7.28300       -3.20700
H         -2.24600        7.67300       -3.22800
C         -1.06800        8.90800       -4.51000
H         -1.28800        8.23000       -5.33800
H         -1.82000        9.69900       -4.55000
C          0.32700        9.52500       -4.72200
O          0.88500        9.32600       -5.82500
O          0.80800       10.24100       -3.81300
C         -1.89900       10.18500       -1.83600
O         -3.08100       10.23800       -1.49400
N         -1.27900       11.28500       -2.23800
H         -0.34200       11.19700       -2.62300
H         -1.78200       12.15200       -2.24300
end

basis
 * library aug-cc-pvdz
end

echo

scf
 direct
end

task scf energy
================================================================================


                                         
                                         


             Northwest Computational Chemistry Package (NWChem) 7.2.0
             --------------------------------------------------------


                    Environmental Molecular Sciences Laboratory
                       Pacific Northwest National Laboratory
                                Richland, WA 99352

                              Copyright (c) 1994-2022
                       Pacific Northwest National Laboratory
                            Battelle Memorial Institute

             NWChem is an open-source computational chemistry package
                        distributed under the terms of the
                      Educational Community License (ECL) 2.0
             A copy of the license is included with this distribution
                              in the LICENSE.TXT file

                                  ACKNOWLEDGMENT
                                  --------------

            This software and its documentation were developed at the
            EMSL at Pacific Northwest National Laboratory, a multiprogram
            national laboratory, operated for the U.S. Department of Energy
            by Battelle under Contract Number DE-AC05-76RL01830. Support
            for this work was provided by the Department of Energy Office
            of Biological and Environmental Research, Office of Basic
            Energy Sciences, and the Office of Advanced Scientific Computing.


           Job information
           ---------------

    hostname        = nova21-speedy-11
    program         = /opt/rit/el9/20230413/app/linux-rhel9-x86_64_v3/gcc-11.2.1/nwchem-7.2.0-oxtctbuhfuzyfaoziquq6bki22grib3g/bin/nwchem
    date            = Fri Jul 11 10:01:44 2025

    compiled        = Wed_May_17_23:46:39_2023
    source          = /tmp/root/spack-stage/spack-stage-nwchem-7.2.0-oxtctbuhfuzyfaoziquq6bki22grib3g/spack-src
    nwchem branch   = 7.2.0
    nwchem revision = d0d141fd
    ga revision     = 5.8.0
    use scalapack   = T
    input           = inputs/ASP_GLU_4.nw
    prefix          = ASP_GLU_4.
    data base       = ./ASP_GLU_4.db
    status          = startup
    nproc           =        8
    time left       =     -1s



           Memory information
           ------------------

    heap     =   26214398 doubles =    200.0 Mbytes
    stack    =   26214395 doubles =    200.0 Mbytes
    global   =   52428800 doubles =    400.0 Mbytes (distinct from heap & stack)
    total    =  104857593 doubles =    800.0 Mbytes
    verify   = yes
    hardfail = no 


           Directory information
           ---------------------

  0 permanent = .
  0 scratch   = .




                                NWChem Input Module
                                -------------------



 Scaling coordinates for geometry "geometry" by  1.889725989
 (inverse scale =  0.529177249)

 C1  symmetry detected

          ------
          auto-z
          ------
  no constraints, skipping    0.0000000000000000     
  no constraints, skipping    0.0000000000000000     


                             Geometry "geometry" -> ""
                             -------------------------

 Output coordinates in angstroms (scale by  1.889725989 to convert to a.u.)

  No.       Tag          Charge          X              Y              Z
 ---- ---------------- ---------- -------------- -------------- --------------
    1 H                    1.0000     3.06261561     4.02467082    -1.78971127
    2 C                    6.0000     2.11420549     3.49297741    -1.79125002
    3 H                    1.0000     2.24527305     2.49745663    -2.21299483
    4 H                    1.0000     1.37074066     4.04125581    -2.36538313
    5 C                    6.0000     1.62941925     3.34489955    -0.37048605
    6 O                    8.0000     2.30709053     3.77499092     0.55686342
    7 N                    7.0000     0.44790016     2.75720696    -0.22625341
    8 H                    1.0000    -0.06255228     2.47235568    -1.05692727
    9 C                    6.0000    -0.16673353     2.32982179     1.03431049
   10 H                    1.0000     0.33589407     2.82243485     1.86666129
   11 C                    6.0000    -1.65199417     2.75313513     1.05920302
   12 H                    1.0000    -2.14044884     2.26548990     1.90476742
   13 H                    1.0000    -1.68101118     3.82768077     1.24908633
   14 C                    6.0000    -2.47745257     2.48610581    -0.21727643
   15 O                    8.0000    -3.64039943     2.94819488    -0.23297044
   16 O                    8.0000    -1.95759803     1.86225378    -1.17473761
   17 C                    6.0000    -0.00275722     0.81280112     1.25793757
   18 O                    8.0000     0.43172803     0.39277533     2.33136707
   19 N                    7.0000    -0.29771087    -0.00084430     0.24148419
   20 H                    1.0000    -0.73693099     0.42564184    -0.57091305
   21 C                    6.0000     0.07657962    -1.42236301     0.16755737
   22 H                    1.0000    -0.08934018    -1.86978793     1.14880737
   23 C                    6.0000    -0.84844449    -2.13982823    -0.83862008
   24 H                    1.0000    -1.86746382    -2.10581604    -0.44987366
   25 H                    1.0000    -0.83781321    -1.56810712    -1.76805375
   26 C                    6.0000    -0.52234246    -3.60327298    -1.20679523
   27 H                    1.0000    -1.22879920    -3.90936383    -1.98196957
   28 H                    1.0000     0.47056887    -3.64422337    -1.65982409
   29 C                    6.0000    -0.58832273    -4.60742393    -0.04103990
   30 O                    8.0000    -1.24926461    -5.65586064    -0.21855129
   31 O                    8.0000     0.06577408    -4.35959862     0.99868986
   32 C                    6.0000     1.57264727    -1.60184749    -0.16906692
   33 O                    8.0000     2.17611593    -0.85306033    -0.93850852
   34 N                    7.0000     2.20103751    -2.63413812     0.37453750
   35 H                    1.0000     1.65510732    -3.30164011     0.91336894
   36 H                    1.0000     3.16917375    -2.78121326     0.16051853

      Atomic Mass 
      ----------- 

      H                  1.007825
      C                 12.000000
      O                 15.994910
      N                 14.003070


 Effective nuclear repulsion energy (a.u.)    1758.0261295064

            Nuclear Dipole moment (a.u.) 
            ----------------------------
        X                 Y               Z
 ---------------- ---------------- ----------------
     0.0000000000     0.0000000000    -0.0000000000



                                Z-matrix (autoz)
                                -------- 

 Units are Angstrom for bonds and degrees for angles

      Type          Name      I     J     K     L     M      Value
      ----------- --------  ----- ----- ----- ----- ----- ----------
    1 Stretch                  1     2                       1.08728
    2 Stretch                  2     3                       1.08909
    3 Stretch                  2     4                       1.08765
    4 Stretch                  2     5                       1.50848
    5 Stretch                  5     6                       1.22646
    6 Stretch                  5     7                       1.32747
    7 Stretch                  7     8                       1.01574
    8 Stretch                  7     9                       1.46610
    9 Stretch                  9    10                       1.09000
   10 Stretch                  9    11                       1.54461
   11 Stretch                  9    17                       1.54216
   12 Stretch                 11    12                       1.09150
   13 Stretch                 11    13                       1.09158
   14 Stretch                 11    14                       1.54340
   15 Stretch                 14    15                       1.25149
   16 Stretch                 14    16                       1.25546
   17 Stretch                 17    18                       1.23185
   18 Stretch                 17    19                       1.33499
   19 Stretch                 19    20                       1.01725
   20 Stretch                 19    21                       1.47183
   21 Stretch                 21    22                       1.09113
   22 Stretch                 21    23                       1.54364
   23 Stretch                 21    32                       1.54394
   24 Stretch                 23    24                       1.09118
   25 Stretch                 23    25                       1.09125
   26 Stretch                 23    26                       1.54388
   27 Stretch                 26    27                       1.09255
   28 Stretch                 26    28                       1.09215
   29 Stretch                 26    29                       1.54002
   30 Stretch                 29    30                       1.25203
   31 Stretch                 29    31                       1.25312
   32 Stretch                 32    33                       1.23162
   33 Stretch                 32    34                       1.32514
   34 Stretch                 34    35                       1.01683
   35 Stretch                 34    36                       1.00236
   36 Bend                     1     2     3               110.03368
   37 Bend                     1     2     4               110.51701
   38 Bend                     1     2     5               109.08660
   39 Bend                     2     5     6               120.01035
   40 Bend                     2     5     7               115.58395
   41 Bend                     3     2     4               109.79381
   42 Bend                     3     2     5               108.28081
   43 Bend                     4     2     5               109.08554
   44 Bend                     5     7     8               118.85468
   45 Bend                     5     7     9               126.55644
   46 Bend                     6     5     7               124.39474
   47 Bend                     7     9    10               109.36015
   48 Bend                     7     9    11               109.69952
   49 Bend                     7     9    17               111.52230
   50 Bend                     8     7     9               114.25015
   51 Bend                     9    11    12               108.68463
   52 Bend                     9    11    13               107.34633
   53 Bend                     9    11    14               116.97084
   54 Bend                     9    17    18               119.95227
   55 Bend                     9    17    19               117.75175
   56 Bend                    10     9    11               107.89318
   57 Bend                    10     9    17               106.54732
   58 Bend                    11     9    17               111.68470
   59 Bend                    11    14    15               116.32628
   60 Bend                    11    14    16               119.68676
   61 Bend                    12    11    13               107.04612
   62 Bend                    12    11    14               108.90914
   63 Bend                    13    11    14               107.45552
   64 Bend                    15    14    16               123.96549
   65 Bend                    17    19    20               116.61140
   66 Bend                    17    19    21               124.79922
   67 Bend                    18    17    19               122.24841
   68 Bend                    19    21    22               108.19186
   69 Bend                    19    21    23               109.22327
   70 Bend                    19    21    32               111.69385
   71 Bend                    20    19    21               118.33412
   72 Bend                    21    23    24               108.23483
   73 Bend                    21    23    25               107.80747
   74 Bend                    21    23    26               117.99801
   75 Bend                    21    32    33               122.70543
   76 Bend                    21    32    34               117.42721
   77 Bend                    22    21    23               107.72617
   78 Bend                    22    21    32               107.20255
   79 Bend                    23    21    32               112.61396
   80 Bend                    23    26    27               107.34866
   81 Bend                    23    26    28               109.05601
   82 Bend                    23    26    29               115.37234
   83 Bend                    24    23    25               107.22956
   84 Bend                    24    23    26               108.16524
   85 Bend                    25    23    26               106.94472
   86 Bend                    26    29    30               117.47133
   87 Bend                    26    29    31               118.47392
   88 Bend                    27    26    28               106.44209
   89 Bend                    27    26    29               109.06864
   90 Bend                    28    26    29               109.17776
   91 Bend                    30    29    31               123.97249
   92 Bend                    32    34    35               118.30501
   93 Bend                    32    34    36               118.99470
   94 Bend                    33    32    34               119.83739
   95 Bend                    35    34    36               122.37028
   96 Torsion                  1     2     5     6          -1.42776
   97 Torsion                  1     2     5     7         177.41977
   98 Torsion                  2     5     7     8          -1.72585
   99 Torsion                  2     5     7     9         171.18182
  100 Torsion                  3     2     5     6         118.31288
  101 Torsion                  3     2     5     7         -62.83959
  102 Torsion                  4     2     5     6        -122.23613
  103 Torsion                  4     2     5     7          56.61140
  104 Torsion                  5     7     9    10          16.93487
  105 Torsion                  5     7     9    11         135.08019
  106 Torsion                  5     7     9    17        -100.65059
  107 Torsion                  6     5     7     8         177.06472
  108 Torsion                  6     5     7     9         -10.02760
  109 Torsion                  7     9    11    12         169.15859
  110 Torsion                  7     9    11    13         -75.38482
  111 Torsion                  7     9    11    14          45.38296
  112 Torsion                  7     9    17    18         129.95285
  113 Torsion                  7     9    17    19         -47.59505
  114 Torsion                  8     7     9    10        -169.87673
  115 Torsion                  8     7     9    11         -51.73141
  116 Torsion                  8     7     9    17          72.53781
  117 Torsion                  9    11    14    15        -173.33485
  118 Torsion                  9    11    14    16           5.04634
  119 Torsion                  9    17    19    20          -8.40948
  120 Torsion                  9    17    19    21         165.66960
  121 Torsion                 10     9    11    12         -71.78913
  122 Torsion                 10     9    11    13          43.66746
  123 Torsion                 10     9    11    14         164.43524
  124 Torsion                 10     9    17    18          10.68344
  125 Torsion                 10     9    17    19        -166.86446
  126 Torsion                 11     9    17    18        -106.90202
  127 Torsion                 11     9    17    19          75.55009
  128 Torsion                 12    11     9    17          44.98393
  129 Torsion                 12    11    14    15          63.00403
  130 Torsion                 12    11    14    16        -118.61479
  131 Torsion                 13    11     9    17         160.44052
  132 Torsion                 13    11    14    15         -52.62461
  133 Torsion                 13    11    14    16         125.75657
  134 Torsion                 14    11     9    17         -78.79170
  135 Torsion                 17    19    21    22          42.03961
  136 Torsion                 17    19    21    23         159.04031
  137 Torsion                 17    19    21    32         -75.72087
  138 Torsion                 18    17    19    20         174.10268
  139 Torsion                 18    17    19    21         -11.81824
  140 Torsion                 19    21    23    24         -64.32875
  141 Torsion                 19    21    23    25          51.35348
  142 Torsion                 19    21    23    26         172.51589
  143 Torsion                 19    21    32    33         -36.19983
  144 Torsion                 19    21    32    34         145.79729
  145 Torsion                 20    19    21    22        -143.97494
  146 Torsion                 20    19    21    23         -26.97425
  147 Torsion                 20    19    21    32          98.26457
  148 Torsion                 21    23    26    27        -175.49350
  149 Torsion                 21    23    26    28         -60.55551
  150 Torsion                 21    23    26    29          62.70603
  151 Torsion                 21    32    34    35           5.49371
  152 Torsion                 21    32    34    36         179.05605
  153 Torsion                 22    21    23    24          52.96631
  154 Torsion                 22    21    23    25         168.64854
  155 Torsion                 22    21    23    26         -70.18905
  156 Torsion                 22    21    32    33        -154.55262
  157 Torsion                 22    21    32    34          27.44451
  158 Torsion                 23    21    32    33          87.13784
  159 Torsion                 23    21    32    34         -90.86504
  160 Torsion                 23    26    29    30         130.29023
  161 Torsion                 23    26    29    31         -52.87538
  162 Torsion                 24    23    21    32         170.96804
  163 Torsion                 24    23    26    27          61.31615
  164 Torsion                 24    23    26    28         176.25413
  165 Torsion                 24    23    26    29         -60.48433
  166 Torsion                 25    23    21    32         -73.34973
  167 Torsion                 25    23    26    27         -53.88851
  168 Torsion                 25    23    26    28          61.04948
  169 Torsion                 25    23    26    29        -175.68899
  170 Torsion                 26    23    21    32          47.81268
  171 Torsion                 27    26    29    30           9.41906
  172 Torsion                 27    26    29    31        -173.74656
  173 Torsion                 28    26    29    30        -106.51265
  174 Torsion                 28    26    29    31          70.32174
  175 Torsion                 33    32    34    35        -172.56901
  176 Torsion                 33    32    34    36           0.99333


            XYZ format geometry
            -------------------
    36
 geometry
 H                     3.06261561     4.02467082    -1.78971127
 C                     2.11420549     3.49297741    -1.79125002
 H                     2.24527305     2.49745663    -2.21299483
 H                     1.37074066     4.04125581    -2.36538313
 C                     1.62941925     3.34489955    -0.37048605
 O                     2.30709053     3.77499092     0.55686342
 N                     0.44790016     2.75720696    -0.22625341
 H                    -0.06255228     2.47235568    -1.05692727
 C                    -0.16673353     2.32982179     1.03431049
 H                     0.33589407     2.82243485     1.86666129
 C                    -1.65199417     2.75313513     1.05920302
 H                    -2.14044884     2.26548990     1.90476742
 H                    -1.68101118     3.82768077     1.24908633
 C                    -2.47745257     2.48610581    -0.21727643
 O                    -3.64039943     2.94819488    -0.23297044
 O                    -1.95759803     1.86225378    -1.17473761
 C                    -0.00275722     0.81280112     1.25793757
 O                     0.43172803     0.39277533     2.33136707
 N                    -0.29771087    -0.00084430     0.24148419
 H                    -0.73693099     0.42564184    -0.57091305
 C                     0.07657962    -1.42236301     0.16755737
 H                    -0.08934018    -1.86978793     1.14880737
 C                    -0.84844449    -2.13982823    -0.83862008
 H                    -1.86746382    -2.10581604    -0.44987366
 H                    -0.83781321    -1.56810712    -1.76805375
 C                    -0.52234246    -3.60327298    -1.20679523
 H                    -1.22879920    -3.90936383    -1.98196957
 H                     0.47056887    -3.64422337    -1.65982409
 C                    -0.58832273    -4.60742393    -0.04103990
 O                    -1.24926461    -5.65586064    -0.21855129
 O                     0.06577408    -4.35959862     0.99868986
 C                     1.57264727    -1.60184749    -0.16906692
 O                     2.17611593    -0.85306033    -0.93850852
 N                     2.20103751    -2.63413812     0.37453750
 H                     1.65510732    -3.30164011     0.91336894
 H                     3.16917375    -2.78121326     0.16051853

 ==============================================================================
                                internuclear distances
 ------------------------------------------------------------------------------
       center one      |      center two      | atomic units |  angstroms
 ------------------------------------------------------------------------------
    2 C                |   1 H                |     2.05466  |     1.08728
    3 H                |   2 C                |     2.05807  |     1.08909
    4 H                |   2 C                |     2.05536  |     1.08765
    5 C                |   2 C                |     2.85062  |     1.50848
    6 O                |   5 C                |     2.31767  |     1.22646
    7 N                |   5 C                |     2.50855  |     1.32747
    8 H                |   7 N                |     1.91946  |     1.01574
    9 C                |   7 N                |     2.77053  |     1.46610
   10 H                |   9 C                |     2.05981  |     1.09000
   11 C                |   9 C                |     2.91889  |     1.54461
   12 H                |  11 C                |     2.06263  |     1.09150
   13 H                |  11 C                |     2.06279  |     1.09158
   14 C                |  11 C                |     2.91660  |     1.54340
   15 O                |  14 C                |     2.36497  |     1.25149
   16 O                |  14 C                |     2.37247  |     1.25546
   17 C                |   9 C                |     2.91425  |     1.54216
   18 O                |  17 C                |     2.32786  |     1.23185
   19 N                |  17 C                |     2.52276  |     1.33499
   20 H                |  19 N                |     1.92232  |     1.01725
   21 C                |  19 N                |     2.78135  |     1.47183
   22 H                |  21 C                |     2.06194  |     1.09113
   23 C                |  21 C                |     2.91705  |     1.54364
   24 H                |  23 C                |     2.06204  |     1.09118
   25 H                |  23 C                |     2.06216  |     1.09125
   26 C                |  23 C                |     2.91751  |     1.54388
   27 H                |  26 C                |     2.06462  |     1.09255
   28 H                |  26 C                |     2.06386  |     1.09215
   29 C                |  26 C                |     2.91021  |     1.54002
   30 O                |  29 C                |     2.36599  |     1.25203
   31 O                |  29 C                |     2.36804  |     1.25312
   32 C                |  21 C                |     2.91762  |     1.54394
   33 O                |  32 C                |     2.32743  |     1.23162
   34 N                |  32 C                |     2.50416  |     1.32514
   35 H                |  34 N                |     1.92153  |     1.01683
   36 H                |  34 N                |     1.89418  |     1.00236
 ------------------------------------------------------------------------------
                         number of included internuclear distances:         35
 ==============================================================================



 ==============================================================================
                                 internuclear angles
 ------------------------------------------------------------------------------
        center 1       |       center 2       |       center 3       |  degrees
 ------------------------------------------------------------------------------
    1 H                |   2 C                |   3 H                |   110.03
    1 H                |   2 C                |   4 H                |   110.52
    1 H                |   2 C                |   5 C                |   109.09
    3 H                |   2 C                |   4 H                |   109.79
    3 H                |   2 C                |   5 C                |   108.28
    4 H                |   2 C                |   5 C                |   109.09
    2 C                |   5 C                |   6 O                |   120.01
    2 C                |   5 C                |   7 N                |   115.58
    6 O                |   5 C                |   7 N                |   124.39
    5 C                |   7 N                |   8 H                |   118.85
    5 C                |   7 N                |   9 C                |   126.56
    8 H                |   7 N                |   9 C                |   114.25
    7 N                |   9 C                |  10 H                |   109.36
    7 N                |   9 C                |  11 C                |   109.70
    7 N                |   9 C                |  17 C                |   111.52
   10 H                |   9 C                |  11 C                |   107.89
   10 H                |   9 C                |  17 C                |   106.55
   11 C                |   9 C                |  17 C                |   111.68
    9 C                |  11 C                |  12 H                |   108.68
    9 C                |  11 C                |  13 H                |   107.35
    9 C                |  11 C                |  14 C                |   116.97
   12 H                |  11 C                |  13 H                |   107.05
   12 H                |  11 C                |  14 C                |   108.91
   13 H                |  11 C                |  14 C                |   107.46
   11 C                |  14 C                |  15 O                |   116.33
   11 C                |  14 C                |  16 O                |   119.69
   15 O                |  14 C                |  16 O                |   123.97
    9 C                |  17 C                |  18 O                |   119.95
    9 C                |  17 C                |  19 N                |   117.75
   18 O                |  17 C                |  19 N                |   122.25
   17 C                |  19 N                |  20 H                |   116.61
   17 C                |  19 N                |  21 C                |   124.80
   20 H                |  19 N                |  21 C                |   118.33
   19 N                |  21 C                |  22 H                |   108.19
   19 N                |  21 C                |  23 C                |   109.22
   19 N                |  21 C                |  32 C                |   111.69
   22 H                |  21 C                |  23 C                |   107.73
   22 H                |  21 C                |  32 C                |   107.20
   23 C                |  21 C                |  32 C                |   112.61
   21 C                |  23 C                |  24 H                |   108.23
   21 C                |  23 C                |  25 H                |   107.81
   21 C                |  23 C                |  26 C                |   118.00
   24 H                |  23 C                |  25 H                |   107.23
   24 H                |  23 C                |  26 C                |   108.17
   25 H                |  23 C                |  26 C                |   106.94
   23 C                |  26 C                |  27 H                |   107.35
   23 C                |  26 C                |  28 H                |   109.06
   23 C                |  26 C                |  29 C                |   115.37
   27 H                |  26 C                |  28 H                |   106.44
   27 H                |  26 C                |  29 C                |   109.07
   28 H                |  26 C                |  29 C                |   109.18
   26 C                |  29 C                |  30 O                |   117.47
   26 C                |  29 C                |  31 O                |   118.47
   30 O                |  29 C                |  31 O                |   123.97
   21 C                |  32 C                |  33 O                |   122.71
   21 C                |  32 C                |  34 N                |   117.43
   33 O                |  32 C                |  34 N                |   119.84
   32 C                |  34 N                |  35 H                |   118.31
   32 C                |  34 N                |  36 H                |   118.99
   35 H                |  34 N                |  36 H                |   122.37
 ------------------------------------------------------------------------------
                            number of included internuclear angles:         60
 ==============================================================================



  library name resolved from: environment
  library file name is: </opt/rit/el9/20230413/app/linux-rhel9-x86_64_v3/gcc-11.2.1/nwchem-7.2.0-oxtctbuhfuzyfaoziquq6bki22grib3g/share/nwchem/libraries/>
  


 Summary of "ao basis" -> "" (cartesian)
 ------------------------------------------------------------------------------
       Tag                 Description            Shells   Functions and Types
 ---------------- ------------------------------  ------  ---------------------
 *                        aug-cc-pvdz                 on all atoms 


                      Basis "ao basis" -> "ao basis" (cartesian)
                      -----
  H (Hydrogen)
  ------------
            Exponent  Coefficients 
       -------------- ---------------------------------------------------------
  1 S  1.30100000E+01  0.019685
  1 S  1.96200000E+00  0.137977
  1 S  4.44600000E-01  0.478148

  2 S  1.22000000E-01  1.000000

  3 S  2.97400000E-02  1.000000

  4 P  7.27000000E-01  1.000000

  5 P  1.41000000E-01  1.000000

  C (Carbon)
  ----------
            Exponent  Coefficients 
       -------------- ---------------------------------------------------------
  1 S  6.66500000E+03  0.000692
  1 S  1.00000000E+03  0.005329
  1 S  2.28000000E+02  0.027077
  1 S  6.47100000E+01  0.101718
  1 S  2.10600000E+01  0.274740
  1 S  7.49500000E+00  0.448564
  1 S  2.79700000E+00  0.285074
  1 S  5.21500000E-01  0.015204

  2 S  6.66500000E+03 -0.000146
  2 S  1.00000000E+03 -0.001154
  2 S  2.28000000E+02 -0.005725
  2 S  6.47100000E+01 -0.023312
  2 S  2.10600000E+01 -0.063955
  2 S  7.49500000E+00 -0.149981
  2 S  2.79700000E+00 -0.127262
  2 S  5.21500000E-01  0.544529

  3 S  1.59600000E-01  1.000000

  4 S  4.69000000E-02  1.000000

  5 P  9.43900000E+00  0.038109
  5 P  2.00200000E+00  0.209480
  5 P  5.45600000E-01  0.508557

  6 P  1.51700000E-01  1.000000

  7 P  4.04100000E-02  1.000000

  8 D  5.50000000E-01  1.000000

  9 D  1.51000000E-01  1.000000

  O (Oxygen)
  ----------
            Exponent  Coefficients 
       -------------- ---------------------------------------------------------
  1 S  1.17200000E+04  0.000710
  1 S  1.75900000E+03  0.005470
  1 S  4.00800000E+02  0.027837
  1 S  1.13700000E+02  0.104800
  1 S  3.70300000E+01  0.283062
  1 S  1.32700000E+01  0.448719
  1 S  5.02500000E+00  0.270952
  1 S  1.01300000E+00  0.015458

  2 S  1.17200000E+04 -0.000160
  2 S  1.75900000E+03 -0.001263
  2 S  4.00800000E+02 -0.006267
  2 S  1.13700000E+02 -0.025716
  2 S  3.70300000E+01 -0.070924
  2 S  1.32700000E+01 -0.165411
  2 S  5.02500000E+00 -0.116955
  2 S  1.01300000E+00  0.557368

  3 S  3.02300000E-01  1.000000

  4 S  7.89600000E-02  1.000000

  5 P  1.77000000E+01  0.043018
  5 P  3.85400000E+00  0.228913
  5 P  1.04600000E+00  0.508728

  6 P  2.75300000E-01  1.000000

  7 P  6.85600000E-02  1.000000

  8 D  1.18500000E+00  1.000000

  9 D  3.32000000E-01  1.000000

  N (Nitrogen)
  ------------
            Exponent  Coefficients 
       -------------- ---------------------------------------------------------
  1 S  9.04600000E+03  0.000700
  1 S  1.35700000E+03  0.005389
  1 S  3.09300000E+02  0.027406
  1 S  8.77300000E+01  0.103207
  1 S  2.85600000E+01  0.278723
  1 S  1.02100000E+01  0.448540
  1 S  3.83800000E+00  0.278238
  1 S  7.46600000E-01  0.015440

  2 S  9.04600000E+03 -0.000153
  2 S  1.35700000E+03 -0.001208
  2 S  3.09300000E+02 -0.005992
  2 S  8.77300000E+01 -0.024544
  2 S  2.85600000E+01 -0.067459
  2 S  1.02100000E+01 -0.158078
  2 S  3.83800000E+00 -0.121831
  2 S  7.46600000E-01  0.549003

  3 S  2.24800000E-01  1.000000

  4 S  6.12400000E-02  1.000000

  5 P  1.35500000E+01  0.039919
  5 P  2.91700000E+00  0.217169
  5 P  7.97300000E-01  0.510319

  6 P  2.18500000E-01  1.000000

  7 P  5.61100000E-02  1.000000

  8 D  8.17000000E-01  1.000000

  9 D  2.30000000E-01  1.000000



 Summary of "ao basis" -> "ao basis" (cartesian)
 ------------------------------------------------------------------------------
       Tag                 Description            Shells   Functions and Types
 ---------------- ------------------------------  ------  ---------------------
 H                        aug-cc-pvdz                5        9   3s2p
 C                        aug-cc-pvdz                9       25   4s3p2d
 O                        aug-cc-pvdz                9       25   4s3p2d
 N                        aug-cc-pvdz                9       25   4s3p2d


                                 NWChem SCF Module
                                 -----------------



  ao basis        = "ao basis"
  functions       =   660
  atoms           =    36
  closed shells   =    79
  open shells     =     0
  charge          =   0.00
  wavefunction    = RHF 
  input vectors   = atomic
  output vectors  = ./ASP_GLU_4.movecs
  use symmetry    = F
  symmetry adapt  = F


 Summary of "ao basis" -> "ao basis" (cartesian)
 ------------------------------------------------------------------------------
       Tag                 Description            Shells   Functions and Types
 ---------------- ------------------------------  ------  ---------------------
 H                        aug-cc-pvdz                5        9   3s2p
 C                        aug-cc-pvdz                9       25   4s3p2d
 O                        aug-cc-pvdz                9       25   4s3p2d
 N                        aug-cc-pvdz                9       25   4s3p2d



 Forming initial guess at       0.8s


 !! The overlap matrix has   6 vectors deemed linearly dependent with
    eigenvalues:
 2.72D-06 3.30D-06 6.80D-06 8.87D-06 9.25D-06 9.91D-06


      Superposition of Atomic Density Guess
      -------------------------------------

 Sum of atomic energies:       -1108.10309820

      Non-variational initial energy
      ------------------------------

 Total energy =   -1120.021071
 1-e energy   =   -5008.762247
 2-e energy   =    2130.715047
 HOMO         =      -0.312905
 LUMO         =      -0.306810


 Starting SCF solution at     283.0s



 ----------------------------------------------
         Quadratically convergent ROHF

 Convergence threshold     :          1.000E-04
 Maximum no. of iterations :           30
 Final Fock-matrix accuracy:          1.000E-10
 ----------------------------------------------


              iter       energy          gnorm     gmax       time
             ----- ------------------- --------- --------- --------
                 1    -1111.6592017949  3.62D+00  2.52D-01    562.3
  Setting level-shift to   3.39 to force positive preconditioner
                 2    -1112.3719383706  1.05D+00  6.83D-02    845.4
  Setting level-shift to   2.08 to force positive preconditioner
                 3    -1112.4493471972  5.10D-01  8.94D-02   1425.0
