export TMOUT=5400
export TMPDIR=/tmp
export PTMPDIR=/tmp/ptmp
 argument  1 = inputs/ASP_CYS_3.nw



============================== echo of input deck ==============================
start ASP_CYS_3
geometry
H         13.67900        3.54500        6.78800
C         12.85400        4.25200        6.83500
H         13.07700        5.03400        7.55900
H         11.93600        3.73900        7.11500
C         12.67100        4.88500        5.47600
O         12.78200        6.09600        5.34800
N         12.38100        4.05100        4.48400
H         12.26100        3.07200        4.69200
C         12.15400        4.42400        3.08200
H         11.71100        5.42000        3.03800
C         13.50700        4.46200        2.33700
H         14.17200        5.15900        2.84900
H         13.96000        3.46900        2.38400
C         13.40000        4.89600        0.86700
O         14.22600        4.42400        0.06000
O         12.44800        5.63900        0.52900
C         11.17200        3.43000        2.42200
O         10.95700        2.32300        2.92400
N         10.58800        3.81500        1.28800
H         10.87700        4.72300        0.92700
C          9.80300        2.95500        0.40200
H         10.16200        1.93400        0.53100
C          8.32700        2.99100        0.83400
H          7.77700        2.22600        0.28600
H          8.26300        2.77400        1.90200
S          7.58200        4.61500        0.49800
H          7.71000        4.54800       -0.83500
C          9.99700        3.28300       -1.09700
O          9.23000        2.81700       -1.93600
N         10.98400        4.08900       -1.47400
H         11.61700        4.49900       -0.79200
H         11.10300        4.28700       -2.45100
end

basis
 * library aug-cc-pvdz
end

echo

scf
 direct
end

task scf energy
================================================================================


                                         
                                         


             Northwest Computational Chemistry Package (NWChem) 7.2.0
             --------------------------------------------------------


                    Environmental Molecular Sciences Laboratory
                       Pacific Northwest National Laboratory
                                Richland, WA 99352

                              Copyright (c) 1994-2022
                       Pacific Northwest National Laboratory
                            Battelle Memorial Institute

             NWChem is an open-source computational chemistry package
                        distributed under the terms of the
                      Educational Community License (ECL) 2.0
             A copy of the license is included with this distribution
                              in the LICENSE.TXT file

                                  ACKNOWLEDGMENT
                                  --------------

            This software and its documentation were developed at the
            EMSL at Pacific Northwest National Laboratory, a multiprogram
            national laboratory, operated for the U.S. Department of Energy
            by Battelle under Contract Number DE-AC05-76RL01830. Support
            for this work was provided by the Department of Energy Office
            of Biological and Environmental Research, Office of Basic
            Energy Sciences, and the Office of Advanced Scientific Computing.


           Job information
           ---------------

    hostname        = nova21-swift-4
    program         = /opt/rit/el9/20230413/app/linux-rhel9-x86_64_v3/gcc-11.2.1/nwchem-7.2.0-oxtctbuhfuzyfaoziquq6bki22grib3g/bin/nwchem
    date            = Thu Jul 10 22:20:18 2025

    compiled        = Wed_May_17_23:46:39_2023
    source          = /tmp/root/spack-stage/spack-stage-nwchem-7.2.0-oxtctbuhfuzyfaoziquq6bki22grib3g/spack-src
    nwchem branch   = 7.2.0
    nwchem revision = d0d141fd
    ga revision     = 5.8.0
    use scalapack   = T
    input           = inputs/ASP_CYS_3.nw
    prefix          = ASP_CYS_3.
    data base       = ./ASP_CYS_3.db
    status          = startup
    nproc           =        8
    time left       =     -1s



           Memory information
           ------------------

    heap     =   26214396 doubles =    200.0 Mbytes
    stack    =   26214401 doubles =    200.0 Mbytes
    global   =   52428800 doubles =    400.0 Mbytes (distinct from heap & stack)
    total    =  104857597 doubles =    800.0 Mbytes
    verify   = yes
    hardfail = no 


           Directory information
           ---------------------

  0 permanent = .
  0 scratch   = .




                                NWChem Input Module
                                -------------------



 Scaling coordinates for geometry "geometry" by  1.889725989
 (inverse scale =  0.529177249)

 C1  symmetry detected

          ------
          auto-z
          ------
  no constraints, skipping    0.0000000000000000     
  no constraints, skipping    0.0000000000000000     


                             Geometry "geometry" -> ""
                             -------------------------

 Output coordinates in angstroms (scale by  1.889725989 to convert to a.u.)

  No.       Tag          Charge          X              Y              Z
 ---- ---------------- ---------- -------------- -------------- --------------
    1 H                    1.0000    -0.99068483    -5.41570867    -1.30565549
    2 C                    6.0000    -1.57808368    -5.10131491    -0.44611948
    3 H                    1.0000    -1.70981973    -5.93758948     0.23851141
    4 H                    1.0000    -2.54894486    -4.73170447    -0.77032574
    5 C                    6.0000    -0.84361706    -3.99480179     0.27307904
    6 O                    8.0000    -0.50813889    -4.14396472     1.43945411
    7 N                    7.0000    -0.61692085    -2.89509705    -0.43613060
    8 H                    1.0000    -0.97319829    -2.84234796    -1.37761290
    9 C                    6.0000     0.07039613    -1.68799972     0.04007671
   10 H                    1.0000    -0.11712276    -1.56001405     1.10715559
   11 C                    6.0000     1.59268366    -1.84990335    -0.16850393
   12 H                    1.0000     1.92614274    -2.74920491     0.35134198
   13 H                    1.0000     1.78688901    -1.98641946    -1.23485970
   14 C                    6.0000     2.42432550    -0.66467664     0.34561132
   15 O                    8.0000     3.48828921    -0.39963836    -0.24940543
   16 O                    8.0000     1.96445657     0.02801225     1.28438695
   17 C                    6.0000    -0.47292629    -0.44354898    -0.69755674
   18 O                    8.0000    -1.09458059    -0.55591144    -1.75802768
   19 N                    7.0000    -0.22572097     0.74481409    -0.14808450
   20 H                    1.0000     0.34482784     0.73243243     0.69608773
   21 C                    6.0000    -0.46072981     2.04087650    -0.78511989
   22 H                    1.0000    -0.39349193     1.89505087    -1.86316300
   23 C                    6.0000    -1.88879285     2.51439122    -0.46431501
   24 H                    1.0000    -2.11888935     3.38896526    -1.07275961
   25 H                    1.0000    -2.59251412     1.71750254    -0.71241541
   26 S                   16.0000    -2.05889000     2.95035892     1.29247073
   27 H                    1.0000    -1.19004362     3.97111369     1.26201293
   28 C                    6.0000     0.61371674     3.09709552    -0.43556735
   29 O                    8.0000     0.42175670     4.28284739    -0.69346241
   30 N                    7.0000     1.73792176     2.72130548     0.16516464
   31 H                    1.0000     1.90602251     1.74717136     0.40331973
   32 H                    1.0000     2.43000983     3.41638442     0.37911175

      Atomic Mass 
      ----------- 

      H                  1.007825
      C                 12.000000
      O                 15.994910
      N                 14.003070
      S                 31.972070


 Effective nuclear repulsion energy (a.u.)    1524.0687112993

            Nuclear Dipole moment (a.u.) 
            ----------------------------
        X                 Y               Z
 ---------------- ---------------- ----------------
     0.0000000000    -0.0000000000    -0.0000000000



                                Z-matrix (autoz)
                                -------- 

 Units are Angstrom for bonds and degrees for angles

      Type          Name      I     J     K     L     M      Value
      ----------- --------  ----- ----- ----- ----- ----- ----------
    1 Stretch                  1     2                       1.08751
    2 Stretch                  2     3                       1.08877
    3 Stretch                  2     4                       1.08825
    4 Stretch                  2     5                       1.51032
    5 Stretch                  5     6                       1.22279
    6 Stretch                  5     7                       1.32805
    7 Stretch                  7     8                       1.00802
    8 Stretch                  7     9                       1.46842
    9 Stretch                  9    10                       1.09096
   10 Stretch                  9    11                       1.54502
   11 Stretch                  9    17                       1.54530
   12 Stretch                 11    12                       1.09095
   13 Stretch                 11    13                       1.09246
   14 Stretch                 11    14                       1.53646
   15 Stretch                 14    15                       1.24752
   16 Stretch                 14    16                       1.25403
   17 Stretch                 17    18                       1.23437
   18 Stretch                 17    19                       1.33238
   19 Stretch                 19    20                       1.01897
   20 Stretch                 19    21                       1.46315
   21 Stretch                 21    22                       1.08994
   22 Stretch                 21    23                       1.53834
   23 Stretch                 21    28                       1.54668
   24 Stretch                 23    24                       1.08997
   25 Stretch                 23    25                       1.09170
   26 Stretch                 23    26                       1.81805
   27 Stretch                 26    27                       1.34081
   28 Stretch                 28    29                       1.22856
   29 Stretch                 28    30                       1.32888
   30 Stretch                 30    31                       1.01682
   31 Stretch                 30    32                       1.00394
   32 Bend                     1     2     3               109.89479
   33 Bend                     1     2     4               110.15682
   34 Bend                     1     2     5               108.99598
   35 Bend                     2     5     6               119.88536
   36 Bend                     2     5     7               115.80947
   37 Bend                     3     2     4               109.89268
   38 Bend                     3     2     5               108.79216
   39 Bend                     4     2     5               109.07925
   40 Bend                     5     7     8               118.80123
   41 Bend                     5     7     9               125.97346
   42 Bend                     6     5     7               124.30253
   43 Bend                     7     9    10               109.46208
   44 Bend                     7     9    11               109.34504
   45 Bend                     7     9    17               110.03695
   46 Bend                     8     7     9               115.17027
   47 Bend                     9    11    12               108.85743
   48 Bend                     9    11    13               108.66444
   49 Bend                     9    11    14               114.03534
   50 Bend                     9    17    18               120.92094
   51 Bend                     9    17    19               117.14073
   52 Bend                    10     9    11               108.28206
   53 Bend                    10     9    17               108.17862
   54 Bend                    11     9    17               111.49199
   55 Bend                    11    14    15               117.76981
   56 Bend                    11    14    16               118.56131
   57 Bend                    12    11    13               107.92515
   58 Bend                    12    11    14               108.11942
   59 Bend                    13    11    14               109.07406
   60 Bend                    15    14    16               123.53577
   61 Bend                    17    19    20               115.76637
   62 Bend                    17    19    21               125.49987
   63 Bend                    18    17    19               121.93301
   64 Bend                    19    21    22               107.59049
   65 Bend                    19    21    23               109.32740
   66 Bend                    19    21    28               113.26173
   67 Bend                    20    19    21               117.47709
   68 Bend                    21    23    24               109.05892
   69 Bend                    21    23    25               109.04570
   70 Bend                    21    23    26               111.23402
   71 Bend                    21    28    29               120.20626
   72 Bend                    21    28    30               119.78422
   73 Bend                    22    21    23               107.74093
   74 Bend                    22    21    28               105.78612
   75 Bend                    23    21    28               112.80206
   76 Bend                    23    26    27                95.73811
   77 Bend                    24    23    25               108.82998
   78 Bend                    24    23    26               109.10192
   79 Bend                    25    23    26               109.53212
   80 Bend                    28    30    31               121.10801
   81 Bend                    28    30    32               118.93011
   82 Bend                    29    28    30               120.00053
   83 Bend                    31    30    32               119.96091
   84 Torsion                  1     2     5     6        -119.86769
   85 Torsion                  1     2     5     7          60.69755
   86 Torsion                  2     5     7     8           2.62964
   87 Torsion                  2     5     7     9         179.79244
   88 Torsion                  3     2     5     6          -0.04631
   89 Torsion                  3     2     5     7        -179.48107
   90 Torsion                  4     2     5     6         119.82166
   91 Torsion                  4     2     5     7         -59.61310
   92 Torsion                  5     7     9    10         -31.55198
   93 Torsion                  5     7     9    11          86.91649
   94 Torsion                  5     7     9    17        -150.30798
   95 Torsion                  6     5     7     8        -176.77710
   96 Torsion                  6     5     7     9           0.38570
   97 Torsion                  7     9    11    12         -56.93961
   98 Torsion                  7     9    11    13          60.36076
   99 Torsion                  7     9    11    14        -177.74721
  100 Torsion                  7     9    17    18         -18.29214
  101 Torsion                  7     9    17    19         162.53123
  102 Torsion                  8     7     9    10         145.70102
  103 Torsion                  8     7     9    11         -95.83051
  104 Torsion                  8     7     9    17          26.94502
  105 Torsion                  9    11    14    15        -148.99867
  106 Torsion                  9    11    14    16          26.95735
  107 Torsion                  9    17    19    20           2.86635
  108 Torsion                  9    17    19    21         169.67482
  109 Torsion                 10     9    11    12          62.26154
  110 Torsion                 10     9    11    13         179.56192
  111 Torsion                 10     9    11    14         -58.54605
  112 Torsion                 10     9    17    18        -137.83252
  113 Torsion                 10     9    17    19          42.99085
  114 Torsion                 11     9    17    18         103.21114
  115 Torsion                 11     9    17    19         -75.96548
  116 Torsion                 12    11     9    17        -178.84378
  117 Torsion                 12    11    14    15          89.78324
  118 Torsion                 12    11    14    16         -94.26073
  119 Torsion                 13    11     9    17         -61.54340
  120 Torsion                 13    11    14    15         -27.33263
  121 Torsion                 13    11    14    16         148.62340
  122 Torsion                 14    11     9    17          60.34863
  123 Torsion                 17    19    21    22         -27.03031
  124 Torsion                 17    19    21    23          89.70993
  125 Torsion                 17    19    21    28        -143.57722
  126 Torsion                 18    17    19    20        -176.30134
  127 Torsion                 18    17    19    21          -9.49286
  128 Torsion                 19    21    23    24        -170.47865
  129 Torsion                 19    21    23    25         -51.75918
  130 Torsion                 19    21    23    26          69.14453
  131 Torsion                 19    21    28    29        -166.71736
  132 Torsion                 19    21    28    30          12.19218
  133 Torsion                 20    19    21    22         139.57556
  134 Torsion                 20    19    21    23        -103.68420
  135 Torsion                 20    19    21    28          23.02865
  136 Torsion                 21    23    26    27          63.88989
  137 Torsion                 21    28    30    31          -0.15676
  138 Torsion                 21    28    30    32         179.48383
  139 Torsion                 22    21    23    24         -53.83370
  140 Torsion                 22    21    23    25          64.88577
  141 Torsion                 22    21    23    26        -174.21053
  142 Torsion                 22    21    28    29          75.67751
  143 Torsion                 22    21    28    30        -105.41296
  144 Torsion                 23    21    28    29         -41.86159
  145 Torsion                 23    21    28    30         137.04795
  146 Torsion                 24    23    21    28          62.54769
  147 Torsion                 24    23    26    27         -56.46155
  148 Torsion                 25    23    21    28        -178.73285
  149 Torsion                 25    23    26    27        -175.49243
  150 Torsion                 26    23    21    28         -57.82914
  151 Torsion                 29    28    30    31         178.75505
  152 Torsion                 29    28    30    32          -1.60436


            XYZ format geometry
            -------------------
    32
 geometry
 H                    -0.99068483    -5.41570867    -1.30565549
 C                    -1.57808368    -5.10131491    -0.44611948
 H                    -1.70981973    -5.93758948     0.23851141
 H                    -2.54894486    -4.73170447    -0.77032574
 C                    -0.84361706    -3.99480179     0.27307904
 O                    -0.50813889    -4.14396472     1.43945411
 N                    -0.61692085    -2.89509705    -0.43613060
 H                    -0.97319829    -2.84234796    -1.37761290
 C                     0.07039613    -1.68799972     0.04007671
 H                    -0.11712276    -1.56001405     1.10715559
 C                     1.59268366    -1.84990335    -0.16850393
 H                     1.92614274    -2.74920491     0.35134198
 H                     1.78688901    -1.98641946    -1.23485970
 C                     2.42432550    -0.66467664     0.34561132
 O                     3.48828921    -0.39963836    -0.24940543
 O                     1.96445657     0.02801225     1.28438695
 C                    -0.47292629    -0.44354898    -0.69755674
 O                    -1.09458059    -0.55591144    -1.75802768
 N                    -0.22572097     0.74481409    -0.14808450
 H                     0.34482784     0.73243243     0.69608773
 C                    -0.46072981     2.04087650    -0.78511989
 H                    -0.39349193     1.89505087    -1.86316300
 C                    -1.88879285     2.51439122    -0.46431501
 H                    -2.11888935     3.38896526    -1.07275961
 H                    -2.59251412     1.71750254    -0.71241541
 S                    -2.05889000     2.95035892     1.29247073
 H                    -1.19004362     3.97111369     1.26201293
 C                     0.61371674     3.09709552    -0.43556735
 O                     0.42175670     4.28284739    -0.69346241
 N                     1.73792176     2.72130548     0.16516464
 H                     1.90602251     1.74717136     0.40331973
 H                     2.43000983     3.41638442     0.37911175

 ==============================================================================
                                internuclear distances
 ------------------------------------------------------------------------------
       center one      |      center two      | atomic units |  angstroms
 ------------------------------------------------------------------------------
    2 C                |   1 H                |     2.05510  |     1.08751
    3 H                |   2 C                |     2.05748  |     1.08877
    4 H                |   2 C                |     2.05650  |     1.08825
    5 C                |   2 C                |     2.85409  |     1.51032
    6 O                |   5 C                |     2.31075  |     1.22279
    7 N                |   5 C                |     2.50965  |     1.32805
    8 H                |   7 N                |     1.90488  |     1.00802
    9 C                |   7 N                |     2.77491  |     1.46842
   10 H                |   9 C                |     2.06162  |     1.09096
   11 C                |   9 C                |     2.91966  |     1.54502
   12 H                |  11 C                |     2.06160  |     1.09095
   13 H                |  11 C                |     2.06445  |     1.09246
   14 C                |  11 C                |     2.90349  |     1.53646
   15 O                |  14 C                |     2.35747  |     1.24752
   16 O                |  14 C                |     2.36978  |     1.25403
   17 C                |   9 C                |     2.92020  |     1.54530
   18 O                |  17 C                |     2.33263  |     1.23437
   19 N                |  17 C                |     2.51783  |     1.33238
   20 H                |  19 N                |     1.92558  |     1.01897
   21 C                |  19 N                |     2.76496  |     1.46315
   22 H                |  21 C                |     2.05968  |     1.08994
   23 C                |  21 C                |     2.90704  |     1.53834
   24 H                |  23 C                |     2.05974  |     1.08997
   25 H                |  23 C                |     2.06301  |     1.09170
   26 S                |  23 C                |     3.43561  |     1.81805
   27 H                |  26 S                |     2.53376  |     1.34081
   28 C                |  21 C                |     2.92280  |     1.54668
   29 O                |  28 C                |     2.32165  |     1.22856
   30 N                |  28 C                |     2.51123  |     1.32888
   31 H                |  30 N                |     1.92150  |     1.01682
   32 H                |  30 N                |     1.89717  |     1.00394
 ------------------------------------------------------------------------------
                         number of included internuclear distances:         31
 ==============================================================================



 ==============================================================================
                                 internuclear angles
 ------------------------------------------------------------------------------
        center 1       |       center 2       |       center 3       |  degrees
 ------------------------------------------------------------------------------
    1 H                |   2 C                |   3 H                |   109.89
    1 H                |   2 C                |   4 H                |   110.16
    1 H                |   2 C                |   5 C                |   109.00
    3 H                |   2 C                |   4 H                |   109.89
    3 H                |   2 C                |   5 C                |   108.79
    4 H                |   2 C                |   5 C                |   109.08
    2 C                |   5 C                |   6 O                |   119.89
    2 C                |   5 C                |   7 N                |   115.81
    6 O                |   5 C                |   7 N                |   124.30
    5 C                |   7 N                |   8 H                |   118.80
    5 C                |   7 N                |   9 C                |   125.97
    8 H                |   7 N                |   9 C                |   115.17
    7 N                |   9 C                |  10 H                |   109.46
    7 N                |   9 C                |  11 C                |   109.35
    7 N                |   9 C                |  17 C                |   110.04
   10 H                |   9 C                |  11 C                |   108.28
   10 H                |   9 C                |  17 C                |   108.18
   11 C                |   9 C                |  17 C                |   111.49
    9 C                |  11 C                |  12 H                |   108.86
    9 C                |  11 C                |  13 H                |   108.66
    9 C                |  11 C                |  14 C                |   114.04
   12 H                |  11 C                |  13 H                |   107.93
   12 H                |  11 C                |  14 C                |   108.12
   13 H                |  11 C                |  14 C                |   109.07
   11 C                |  14 C                |  15 O                |   117.77
   11 C                |  14 C                |  16 O                |   118.56
   15 O                |  14 C                |  16 O                |   123.54
    9 C                |  17 C                |  18 O                |   120.92
    9 C                |  17 C                |  19 N                |   117.14
   18 O                |  17 C                |  19 N                |   121.93
   17 C                |  19 N                |  20 H                |   115.77
   17 C                |  19 N                |  21 C                |   125.50
   20 H                |  19 N                |  21 C                |   117.48
   19 N                |  21 C                |  22 H                |   107.59
   19 N                |  21 C                |  23 C                |   109.33
   19 N                |  21 C                |  28 C                |   113.26
   22 H                |  21 C                |  23 C                |   107.74
   22 H                |  21 C                |  28 C                |   105.79
   23 C                |  21 C                |  28 C                |   112.80
   21 C                |  23 C                |  24 H                |   109.06
   21 C                |  23 C                |  25 H                |   109.05
   21 C                |  23 C                |  26 S                |   111.23
   24 H                |  23 C                |  25 H                |   108.83
   24 H                |  23 C                |  26 S                |   109.10
   25 H                |  23 C                |  26 S                |   109.53
   23 C                |  26 S                |  27 H                |    95.74
   21 C                |  28 C                |  29 O                |   120.21
   21 C                |  28 C                |  30 N                |   119.78
   29 O                |  28 C                |  30 N                |   120.00
   28 C                |  30 N                |  31 H                |   121.11
   28 C                |  30 N                |  32 H                |   118.93
   31 H                |  30 N                |  32 H                |   119.96
 ------------------------------------------------------------------------------
                            number of included internuclear angles:         52
 ==============================================================================



  library name resolved from: environment
  library file name is: </opt/rit/el9/20230413/app/linux-rhel9-x86_64_v3/gcc-11.2.1/nwchem-7.2.0-oxtctbuhfuzyfaoziquq6bki22grib3g/share/nwchem/libraries/>
  


 Summary of "ao basis" -> "" (cartesian)
 ------------------------------------------------------------------------------
       Tag                 Description            Shells   Functions and Types
 ---------------- ------------------------------  ------  ---------------------
 *                        aug-cc-pvdz                 on all atoms 


                      Basis "ao basis" -> "ao basis" (cartesian)
                      -----
  H (Hydrogen)
  ------------
            Exponent  Coefficients 
       -------------- ---------------------------------------------------------
  1 S  1.30100000E+01  0.019685
  1 S  1.96200000E+00  0.137977
  1 S  4.44600000E-01  0.478148

  2 S  1.22000000E-01  1.000000

  3 S  2.97400000E-02  1.000000

  4 P  7.27000000E-01  1.000000

  5 P  1.41000000E-01  1.000000

  C (Carbon)
  ----------
            Exponent  Coefficients 
       -------------- ---------------------------------------------------------
  1 S  6.66500000E+03  0.000692
  1 S  1.00000000E+03  0.005329
  1 S  2.28000000E+02  0.027077
  1 S  6.47100000E+01  0.101718
  1 S  2.10600000E+01  0.274740
  1 S  7.49500000E+00  0.448564
  1 S  2.79700000E+00  0.285074
  1 S  5.21500000E-01  0.015204

  2 S  6.66500000E+03 -0.000146
  2 S  1.00000000E+03 -0.001154
  2 S  2.28000000E+02 -0.005725
  2 S  6.47100000E+01 -0.023312
  2 S  2.10600000E+01 -0.063955
  2 S  7.49500000E+00 -0.149981
  2 S  2.79700000E+00 -0.127262
  2 S  5.21500000E-01  0.544529

  3 S  1.59600000E-01  1.000000

  4 S  4.69000000E-02  1.000000

  5 P  9.43900000E+00  0.038109
  5 P  2.00200000E+00  0.209480
  5 P  5.45600000E-01  0.508557

  6 P  1.51700000E-01  1.000000

  7 P  4.04100000E-02  1.000000

  8 D  5.50000000E-01  1.000000

  9 D  1.51000000E-01  1.000000

  O (Oxygen)
  ----------
            Exponent  Coefficients 
       -------------- ---------------------------------------------------------
  1 S  1.17200000E+04  0.000710
  1 S  1.75900000E+03  0.005470
  1 S  4.00800000E+02  0.027837
  1 S  1.13700000E+02  0.104800
  1 S  3.70300000E+01  0.283062
  1 S  1.32700000E+01  0.448719
  1 S  5.02500000E+00  0.270952
  1 S  1.01300000E+00  0.015458

  2 S  1.17200000E+04 -0.000160
  2 S  1.75900000E+03 -0.001263
  2 S  4.00800000E+02 -0.006267
  2 S  1.13700000E+02 -0.025716
  2 S  3.70300000E+01 -0.070924
  2 S  1.32700000E+01 -0.165411
  2 S  5.02500000E+00 -0.116955
  2 S  1.01300000E+00  0.557368

  3 S  3.02300000E-01  1.000000

  4 S  7.89600000E-02  1.000000

  5 P  1.77000000E+01  0.043018
  5 P  3.85400000E+00  0.228913
  5 P  1.04600000E+00  0.508728

  6 P  2.75300000E-01  1.000000

  7 P  6.85600000E-02  1.000000

  8 D  1.18500000E+00  1.000000

  9 D  3.32000000E-01  1.000000

  N (Nitrogen)
  ------------
            Exponent  Coefficients 
       -------------- ---------------------------------------------------------
  1 S  9.04600000E+03  0.000700
  1 S  1.35700000E+03  0.005389
  1 S  3.09300000E+02  0.027406
  1 S  8.77300000E+01  0.103207
  1 S  2.85600000E+01  0.278723
  1 S  1.02100000E+01  0.448540
  1 S  3.83800000E+00  0.278238
  1 S  7.46600000E-01  0.015440

  2 S  9.04600000E+03 -0.000153
  2 S  1.35700000E+03 -0.001208
  2 S  3.09300000E+02 -0.005992
  2 S  8.77300000E+01 -0.024544
  2 S  2.85600000E+01 -0.067459
  2 S  1.02100000E+01 -0.158078
  2 S  3.83800000E+00 -0.121831
  2 S  7.46600000E-01  0.549003

  3 S  2.24800000E-01  1.000000

  4 S  6.12400000E-02  1.000000

  5 P  1.35500000E+01  0.039919
  5 P  2.91700000E+00  0.217169
  5 P  7.97300000E-01  0.510319

  6 P  2.18500000E-01  1.000000

  7 P  5.61100000E-02  1.000000

  8 D  8.17000000E-01  1.000000

  9 D  2.30000000E-01  1.000000

  S (Sulphur)
  -----------
            Exponent  Coefficients 
       -------------- ---------------------------------------------------------
  1 S  1.10800000E+05  0.000248
  1 S  1.66100000E+04  0.001920
  1 S  3.78100000E+03  0.009962
  1 S  1.07100000E+03  0.040298
  1 S  3.49800000E+02  0.128604
  1 S  1.26300000E+02  0.303480
  1 S  4.92600000E+01  0.421432
  1 S  2.01600000E+01  0.230781
  1 S  5.72000000E+00  0.017897
  1 S  2.18200000E+00 -0.002975
  1 S  4.32700000E-01  0.000850

  2 S  1.10800000E+05 -0.000069
  2 S  1.66100000E+04 -0.000528
  2 S  3.78100000E+03 -0.002797
  2 S  1.07100000E+03 -0.011265
  2 S  3.49800000E+02 -0.038883
  2 S  1.26300000E+02 -0.099503
  2 S  4.92600000E+01 -0.199740
  2 S  2.01600000E+01 -0.123360
  2 S  5.72000000E+00  0.513194
  2 S  2.18200000E+00  0.607120
  2 S  4.32700000E-01  0.039675

  3 S  1.10800000E+05  0.000020
  3 S  1.66100000E+04  0.000153
  3 S  3.78100000E+03  0.000810
  3 S  1.07100000E+03  0.003290
  3 S  3.49800000E+02  0.011297
  3 S  1.26300000E+02  0.029639
  3 S  4.92600000E+01  0.059985
  3 S  2.01600000E+01  0.041325
  3 S  5.72000000E+00 -0.207474
  3 S  2.18200000E+00 -0.392889
  3 S  4.32700000E-01  0.632840

  4 S  1.57000000E-01  1.000000

  5 S  5.07000000E-02  1.000000

  6 P  3.99700000E+02  0.004475
  6 P  9.41900000E+01  0.034171
  6 P  2.97500000E+01  0.144250
  6 P  1.07700000E+01  0.353928
  6 P  4.11900000E+00  0.459085
  6 P  1.62500000E+00  0.206383
  6 P  4.72600000E-01  0.010214

  7 P  3.99700000E+02 -0.001163
  7 P  9.41900000E+01 -0.008657
  7 P  2.97500000E+01 -0.039089
  7 P  1.07700000E+01 -0.093463
  7 P  4.11900000E+00 -0.147994
  7 P  1.62500000E+00  0.030190
  7 P  4.72600000E-01  0.561573

  8 P  1.40700000E-01  1.000000

  9 P  3.99000000E-02  1.000000

 10 D  4.79000000E-01  1.000000

 11 D  1.52000000E-01  1.000000



 Summary of "ao basis" -> "ao basis" (cartesian)
 ------------------------------------------------------------------------------
       Tag                 Description            Shells   Functions and Types
 ---------------- ------------------------------  ------  ---------------------
 H                        aug-cc-pvdz                5        9   3s2p
 C                        aug-cc-pvdz                9       25   4s3p2d
 O                        aug-cc-pvdz                9       25   4s3p2d
 N                        aug-cc-pvdz                9       25   4s3p2d
 S                        aug-cc-pvdz               11       29   5s4p2d


 ------------------------------------------------------------------------
 scf: no. of closed-shell electrons is not even!                   0
 ------------------------------------------------------------------------
 ------------------------------------------------------------------------
  current input line : 
     0: 
 scf: no. of closed-shell electrons is not even!                   0
 ------------------------------------------------------------------------
 ------------------------------------------------------------------------
  current input line : 
     0: 
 ------------------------------------------------------------------------
 scf: no. of closed-shell electrons is not even!                   0
 ------------------------------------------------------------------------
 ------------------------------------------------------------------------
  current input line : 
     0: 
 ------------------------------------------------------------------------
 ------------------------------------------------------------------------
 There is an error in the input file
 ------------------------------------------------------------------------
 For more information see the NWChem manual at https://nwchemgit.github.io


 scf: no. of closed-shell electrons is not even!                   0
 ------------------------------------------------------------------------
 ------------------------------------------------------------------------
  current input line : 
     0: 
 ------------------------------------------------------------------------
 ------------------------------------------------------------------------
 There is an error in the input file
 ------------------------------------------------------------------------
 For more information see the NWChem manual at https://nwchemgit.github.io


 For further details see manual section:                                                                                                                                                                                                                                                                
 scf: no. of closed-shell electrons is not even!                   0
 ------------------------------------------------------------------------
 ------------------------------------------------------------------------
  current input line : 
     0: 
 ------------------------------------------------------------------------
 ------------------------------------------------------------------------
 There is an error in the input file
 ------------------------------------------------------------------------
 For more information see the NWChem manual at https://nwchemgit.github.io


 For further details see manual section:                                                                                                                                                                                                                                                                
 scf: no. of closed-shell electrons is not even!                   0
 ------------------------------------------------------------------------
 ------------------------------------------------------------------------
  current input line : 
     0: 
 ------------------------------------------------------------------------
 ------------------------------------------------------------------------
 There is an error in the input file
 ------------------------------------------------------------------------
 For more information see the NWChem manual at https://nwchemgit.github.io


 For further details see manual section:                                                                                                                                                                                                                                                                
 scf: no. of closed-shell electrons is not even!                   0
 ------------------------------------------------------------------------
 ------------------------------------------------------------------------
  current input line : 
     0: 
 ------------------------------------------------------------------------
 ------------------------------------------------------------------------
 There is an error in the input file
 ------------------------------------------------------------------------
 For more information see the NWChem manual at https://nwchemgit.github.io


 For further details see manual section:                                                                                                                                                                                                                                                                
 ------------------------------------------------------------------------
 ------------------------------------------------------------------------
 There is an error in the input file
 ------------------------------------------------------------------------
 For more information see the NWChem manual at https://nwchemgit.github.io


 For further details see manual section:                                                                                                                                                                                                                                                                
1:scf: no. of closed-shell electrons is not even!:Received an Error in Communication
 ------------------------------------------------------------------------
 There is an error in the input file
 ------------------------------------------------------------------------
 For more information see the NWChem manual at https://nwchemgit.github.io


 For further details see manual section:                                                                                                                                                                                                                                                                
2:scf: no. of closed-shell electrons is not even!:Received an Error in Communication
 For further details see manual section:                                                                                                                                                                                                                                                                
3:scf: no. of closed-shell electrons is not even!:Received an Error in Communication
4:scf: no. of closed-shell electrons is not even!:Received an Error in Communication
5:scf: no. of closed-shell electrons is not even!:Received an Error in Communication
6:scf: no. of closed-shell electrons is not even!:Received an Error in Communication
7:scf: no. of closed-shell electrons is not even!:Received an Error in Communication
 scf: no. of closed-shell electrons is not even!                   0
 ------------------------------------------------------------------------
 ------------------------------------------------------------------------
  current input line : 
    47: task scf energy
 ------------------------------------------------------------------------
 ------------------------------------------------------------------------
 There is an error in the input file
 ------------------------------------------------------------------------
 For more information see the NWChem manual at https://nwchemgit.github.io


 For further details see manual section:                                                                                                                                                                                                                                                                
0:scf: no. of closed-shell electrons is not even!:Received an Error in Communication
--------------------------------------------------------------------------
MPI_ABORT was invoked on rank 1 in communicator MPI COMMUNICATOR 3 DUP FROM 0
with errorcode -1.

NOTE: invoking MPI_ABORT causes Open MPI to kill all MPI processes.
You may or may not see output from other processes, depending on
exactly when Open MPI kills them.
--------------------------------------------------------------------------
--------------------------------------------------------------------------
MPI_ABORT was invoked on rank 3 in communicator MPI COMMUNICATOR 3 DUP FROM 0
with errorcode -1.

NOTE: invoking MPI_ABORT causes Open MPI to kill all MPI processes.
You may or may not see output from other processes, depending on
exactly when Open MPI kills them.
--------------------------------------------------------------------------
--------------------------------------------------------------------------
MPI_ABORT was invoked on rank 4 in communicator MPI COMMUNICATOR 3 DUP FROM 0
with errorcode -1.

NOTE: invoking MPI_ABORT causes Open MPI to kill all MPI processes.
You may or may not see output from other processes, depending on
exactly when Open MPI kills them.
--------------------------------------------------------------------------
--------------------------------------------------------------------------
MPI_ABORT was invoked on rank 5 in communicator MPI COMMUNICATOR 3 DUP FROM 0
with errorcode -1.

NOTE: invoking MPI_ABORT causes Open MPI to kill all MPI processes.
You may or may not see output from other processes, depending on
exactly when Open MPI kills them.
--------------------------------------------------------------------------
--------------------------------------------------------------------------
MPI_ABORT was invoked on rank 0 in communicator MPI COMMUNICATOR 3 DUP FROM 0
with errorcode -1.

NOTE: invoking MPI_ABORT causes Open MPI to kill all MPI processes.
You may or may not see output from other processes, depending on
exactly when Open MPI kills them.
--------------------------------------------------------------------------
--------------------------------------------------------------------------
MPI_ABORT was invoked on rank 6 in communicator MPI COMMUNICATOR 3 DUP FROM 0
with errorcode -1.

NOTE: invoking MPI_ABORT causes Open MPI to kill all MPI processes.
You may or may not see output from other processes, depending on
exactly when Open MPI kills them.
--------------------------------------------------------------------------
--------------------------------------------------------------------------
MPI_ABORT was invoked on rank 7 in communicator MPI COMMUNICATOR 3 DUP FROM 0
with errorcode -1.

NOTE: invoking MPI_ABORT causes Open MPI to kill all MPI processes.
You may or may not see output from other processes, depending on
exactly when Open MPI kills them.
--------------------------------------------------------------------------
--------------------------------------------------------------------------
MPI_ABORT was invoked on rank 2 in communicator MPI COMMUNICATOR 3 DUP FROM 0
with errorcode -1.

NOTE: invoking MPI_ABORT causes Open MPI to kill all MPI processes.
You may or may not see output from other processes, depending on
exactly when Open MPI kills them.
--------------------------------------------------------------------------
slurmstepd: error: *** STEP 6619389.101 ON nova21-swift-4 CANCELLED AT 2025-07-10T22:20:18 ***
srun: Job step aborted: Waiting up to 32 seconds for job step to finish.
slurmstepd: error: --task-epilog failed status=9
srun: error: nova21-swift-4: tasks 0-7: Killed
