export TMOUT=5400
export TMPDIR=/tmp
export PTMPDIR=/tmp/ptmp
 argument  1 = inputs/ASP_GLN_1.nw



============================== echo of input deck ==============================
start ASP_GLN_1
geometry
H          7.06700        3.30200        3.29200
C          6.74500        3.91600        2.45300
H          7.56100        4.55700        2.12500
H          5.89100        4.52400        2.74800
C          6.33600        3.01600        1.31400
O          6.92300        3.07700        0.24100
N          5.30800        2.21000        1.54900
H          4.78900        2.34200        2.41100
C          4.64300        1.36300        0.54800
H          5.37200        0.68800        0.10000
C          3.53800        0.52800        1.23900
H          3.06300       -0.10400        0.48700
H          4.01000       -0.13100        1.97000
C          2.45500        1.35600        1.96100
O          1.28500        0.92400        1.97400
O          2.76400        2.46100        2.46300
C          4.01600        2.19800       -0.58300
O          4.14900        1.87300       -1.76000
N          3.36300        3.30100       -0.21500
H          3.23100        3.43000        0.78600
C          2.71700        4.25700       -1.11900
H          2.33400        3.70800       -1.98100
C          1.51500        4.88400       -0.38500
H          1.87600        5.33100        0.54400
H          1.07500        5.67600       -0.99300
C          0.41600        3.84900       -0.06500
H         -0.30400        3.82500       -0.88200
H          0.84000        2.84900        0.01600
C         -0.32200        4.16000        1.23400
O         -0.98400        5.17800        1.37200
N         -0.26000        3.30000        2.22400
H          0.35400        2.47700        2.15700
H         -0.70000        3.55000        3.08200
C          3.69900        5.30800       -1.68300
O          3.29300        6.29500       -2.28900
N          5.00500        5.14400       -1.49500
H          5.63500        5.82700       -1.87300
H          5.34500        4.31200       -1.03100
end

basis
 * library aug-cc-pvdz
end

echo

scf
 direct
end

task scf energy
================================================================================


                                         
                                         


             Northwest Computational Chemistry Package (NWChem) 7.2.0
             --------------------------------------------------------


                    Environmental Molecular Sciences Laboratory
                       Pacific Northwest National Laboratory
                                Richland, WA 99352

                              Copyright (c) 1994-2022
                       Pacific Northwest National Laboratory
                            Battelle Memorial Institute

             NWChem is an open-source computational chemistry package
                        distributed under the terms of the
                      Educational Community License (ECL) 2.0
             A copy of the license is included with this distribution
                              in the LICENSE.TXT file

                                  ACKNOWLEDGMENT
                                  --------------

            This software and its documentation were developed at the
            EMSL at Pacific Northwest National Laboratory, a multiprogram
            national laboratory, operated for the U.S. Department of Energy
            by Battelle under Contract Number DE-AC05-76RL01830. Support
            for this work was provided by the Department of Energy Office
            of Biological and Environmental Research, Office of Basic
            Energy Sciences, and the Office of Advanced Scientific Computing.


           Job information
           ---------------

    hostname        = nova21-swift-1
    program         = /opt/rit/el9/20230413/app/linux-rhel9-x86_64_v3/gcc-11.2.1/nwchem-7.2.0-oxtctbuhfuzyfaoziquq6bki22grib3g/bin/nwchem
    date            = Fri Jul 11 03:00:04 2025

    compiled        = Wed_May_17_23:46:39_2023
    source          = /tmp/root/spack-stage/spack-stage-nwchem-7.2.0-oxtctbuhfuzyfaoziquq6bki22grib3g/spack-src
    nwchem branch   = 7.2.0
    nwchem revision = d0d141fd
    ga revision     = 5.8.0
    use scalapack   = T
    input           = inputs/ASP_GLN_1.nw
    prefix          = ASP_GLN_1.
    data base       = ./ASP_GLN_1.db
    status          = startup
    nproc           =        8
    time left       =     -1s



           Memory information
           ------------------

    heap     =   26214396 doubles =    200.0 Mbytes
    stack    =   26214401 doubles =    200.0 Mbytes
    global   =   52428800 doubles =    400.0 Mbytes (distinct from heap & stack)
    total    =  104857597 doubles =    800.0 Mbytes
    verify   = yes
    hardfail = no 


           Directory information
           ---------------------

  0 permanent = .
  0 scratch   = .




                                NWChem Input Module
                                -------------------



 Scaling coordinates for geometry "geometry" by  1.889725989
 (inverse scale =  0.529177249)

 C1  symmetry detected

          ------
          auto-z
          ------
  no constraints, skipping    0.0000000000000000     
  no constraints, skipping    0.0000000000000000     


                             Geometry "geometry" -> ""
                             -------------------------

 Output coordinates in angstroms (scale by  1.889725989 to convert to a.u.)

  No.       Tag          Charge          X              Y              Z
 ---- ---------------- ---------- -------------- -------------- --------------
    1 H                    1.0000    -1.82555884    -3.45712672     2.80495235
    2 C                    6.0000    -0.81206221    -3.15884750     2.54331311
    3 H                    1.0000    -0.10222617    -3.90945034     2.88543764
    4 H                    1.0000    -0.58246996    -2.19632847     2.99812022
    5 C                    6.0000    -0.70949333    -3.02965825     1.04418278
    6 O                    8.0000     0.07458140    -3.73233213     0.41880670
    7 N                    7.0000    -1.48180133    -2.10627751     0.48511805
    8 H                    1.0000    -1.97963673    -1.46931313     1.09852271
    9 C                    6.0000    -1.43899755    -1.70081412    -0.92746904
   10 H                    1.0000    -1.61661827    -2.56949093    -1.56120517
   11 C                    6.0000    -2.54330571    -0.64855090    -1.19010301
   12 H                    1.0000    -2.50748879    -0.36745992    -2.24379082
   13 H                    1.0000    -3.51363178    -1.11412462    -1.00807439
   14 C                    6.0000    -2.44613886     0.62404817    -0.32361169
   15 O                    8.0000    -2.79597342     1.71238755    -0.82243649
   16 O                    8.0000    -1.96823391     0.54211809     0.83111959
   17 C                    6.0000    -0.07128678    -1.10828431    -1.31190457
   18 O                    8.0000     0.49049765    -1.43363792    -2.35458682
   19 N                    7.0000     0.47661353    -0.26303131    -0.43795112
   20 H                    1.0000    -0.10986381     0.01111483     0.34751322
   21 C                    6.0000     1.77896650     0.39406579    -0.58136709
   22 H                    1.0000     1.95220171     0.58286697    -1.64225242
   23 C                    6.0000     1.71789710     1.75622399     0.13799690
   24 H                    1.0000     1.42384282     1.58286035     1.17561346
   25 H                    1.0000     2.70321614     2.22491654     0.13929172
   26 C                    6.0000     0.71825479     2.72723324    -0.52478686
   27 H                    1.0000     1.23998827     3.32766435    -1.26892505
   28 H                    1.0000    -0.06296240     2.17808546    -1.04868897
   29 C                    6.0000     0.05128741     3.65985253     0.48225920
   30 O                    8.0000     0.69246973     4.47279932     1.13157789
   31 N                    7.0000    -1.25058681     3.60061561     0.64087346
   32 H                    1.0000    -1.79757460     2.87164316     0.16315227
   33 H                    1.0000    -1.65740737     4.17641494     1.34458944
   34 C                    6.0000     2.95342577    -0.49053857    -0.10687627
   35 O                    8.0000     4.08136868    -0.02705973     0.03159089
   36 N                    7.0000     2.73176702    -1.77236730     0.16818468
   37 H                    1.0000     3.50261659    -2.34067003     0.46667412
   38 H                    1.0000     1.81266249    -2.16676060     0.01711917

      Atomic Mass 
      ----------- 

      H                  1.007825
      C                 12.000000
      O                 15.994910
      N                 14.003070


 Effective nuclear repulsion energy (a.u.)    1856.9755795155

            Nuclear Dipole moment (a.u.) 
            ----------------------------
        X                 Y               Z
 ---------------- ---------------- ----------------
    -0.0000000000    -0.0000000000    -0.0000000000



                                Z-matrix (autoz)
                                -------- 

 Units are Angstrom for bonds and degrees for angles

      Type          Name      I     J     K     L     M      Value
      ----------- --------  ----- ----- ----- ----- ----- ----------
    1 Stretch                  1     2                       1.08839
    2 Stretch                  2     3                       1.08827
    3 Stretch                  2     4                       1.08904
    4 Stretch                  2     5                       1.50818
    5 Stretch                  5     6                       1.22459
    6 Stretch                  5     7                       1.32727
    7 Stretch                  7     8                       1.01480
    8 Stretch                  7     9                       1.47025
    9 Stretch                  9    10                       1.08985
   10 Stretch                  9    11                       1.54781
   11 Stretch                  9    17                       1.53932
   12 Stretch                 11    12                       1.09112
   13 Stretch                 11    13                       1.09152
   14 Stretch                 11    14                       1.54265
   15 Stretch                 14    15                       1.24727
   16 Stretch                 14    16                       1.25240
   17 Stretch                 17    18                       1.22827
   18 Stretch                 17    19                       1.33358
   19 Stretch                 19    20                       1.01787
   20 Stretch                 19    21                       1.46577
   21 Stretch                 21    22                       1.09139
   22 Stretch                 21    23                       1.54165
   23 Stretch                 21    34                       1.54500
   24 Stretch                 23    24                       1.09232
   25 Stretch                 23    25                       1.09111
   26 Stretch                 23    26                       1.54319
   27 Stretch                 26    27                       1.08925
   28 Stretch                 26    28                       1.08919
   29 Stretch                 26    29                       1.52603
   30 Stretch                 29    30                       1.22213
   31 Stretch                 29    31                       1.31284
   32 Stretch                 31    32                       1.02899
   33 Stretch                 31    33                       0.99612
   34 Stretch                 34    35                       1.22729
   35 Stretch                 34    36                       1.32961
   36 Stretch                 36    37                       1.00313
   37 Stretch                 36    38                       1.01149
   38 Bend                     1     2     3               110.04657
   39 Bend                     1     2     4               109.76342
   40 Bend                     1     2     5               109.01113
   41 Bend                     2     5     6               120.13315
   42 Bend                     2     5     7               116.02145
   43 Bend                     3     2     4               109.92524
   44 Bend                     3     2     5               109.09963
   45 Bend                     4     2     5               108.96993
   46 Bend                     5     7     8               117.87334
   47 Bend                     5     7     9               125.42331
   48 Bend                     6     5     7               123.82444
   49 Bend                     7     9    10               109.51945
   50 Bend                     7     9    11               109.25294
   51 Bend                     7     9    17               111.83723
   52 Bend                     8     7     9               114.95668
   53 Bend                     9    11    12               108.39558
   54 Bend                     9    11    13               108.41944
   55 Bend                     9    11    14               114.87135
   56 Bend                     9    17    18               121.09330
   57 Bend                     9    17    19               116.44596
   58 Bend                    10     9    11               109.08237
   59 Bend                    10     9    17               107.84221
   60 Bend                    11     9    17               109.26005
   61 Bend                    11    14    15               118.52364
   62 Bend                    11    14    16               119.20632
   63 Bend                    12    11    13               107.46402
   64 Bend                    12    11    14               109.13731
   65 Bend                    13    11    14               108.31198
   66 Bend                    15    14    16               122.19845
   67 Bend                    17    19    20               116.08448
   68 Bend                    17    19    21               125.80745
   69 Bend                    18    17    19               122.43221
   70 Bend                    19    21    22               108.28193
   71 Bend                    19    21    23               108.37585
   72 Bend                    19    21    34               112.87330
   73 Bend                    20    19    21               117.82068
   74 Bend                    21    23    24               108.28120
   75 Bend                    21    23    25               110.14050
   76 Bend                    21    23    26               112.40899
   77 Bend                    21    34    35               121.13524
   78 Bend                    21    34    36               119.26100
   79 Bend                    22    21    23               107.87939
   80 Bend                    22    21    34               106.07630
   81 Bend                    23    21    34               113.12289
   82 Bend                    23    26    27               109.26797
   83 Bend                    23    26    28               110.72968
   84 Bend                    23    26    29               112.59634
   85 Bend                    24    23    25               108.06807
   86 Bend                    24    23    26               109.47906
   87 Bend                    25    23    26               108.37249
   88 Bend                    26    29    30               121.85918
   89 Bend                    26    29    31               119.04945
   90 Bend                    27    26    28               107.02964
   91 Bend                    27    26    29               108.86221
   92 Bend                    28    26    29               108.18365
   93 Bend                    29    31    32               120.19960
   94 Bend                    29    31    33               117.66253
   95 Bend                    30    29    31               119.08350
   96 Bend                    32    31    33               121.35820
   97 Bend                    34    36    37               118.66044
   98 Bend                    34    36    38               119.76765
   99 Bend                    35    34    36               119.60025
  100 Bend                    37    36    38               121.45291
  101 Torsion                  1     2     5     6        -119.14200
  102 Torsion                  1     2     5     7          62.46032
  103 Torsion                  2     5     7     8           8.55724
  104 Torsion                  2     5     7     9         172.69251
  105 Torsion                  3     2     5     6           1.05586
  106 Torsion                  3     2     5     7        -177.34183
  107 Torsion                  4     2     5     6         121.08148
  108 Torsion                  4     2     5     7         -57.31621
  109 Torsion                  5     7     9    10          57.87625
  110 Torsion                  5     7     9    11         177.29757
  111 Torsion                  5     7     9    17         -61.61341
  112 Torsion                  6     5     7     8        -169.77463
  113 Torsion                  6     5     7     9          -5.63936
  114 Torsion                  7     9    11    12        -179.27393
  115 Torsion                  7     9    11    13         -62.90801
  116 Torsion                  7     9    11    14          58.38371
  117 Torsion                  7     9    17    18         135.17476
  118 Torsion                  7     9    17    19         -42.92823
  119 Torsion                  8     7     9    10        -137.58220
  120 Torsion                  8     7     9    11         -18.16088
  121 Torsion                  8     7     9    17         102.92814
  122 Torsion                  9    11    14    15         145.93473
  123 Torsion                  9    11    14    16         -31.05678
  124 Torsion                  9    17    19    20          -7.75261
  125 Torsion                  9    17    19    21         178.56996
  126 Torsion                 10     9    11    12         -59.58268
  127 Torsion                 10     9    11    13          56.78324
  128 Torsion                 10     9    11    14         178.07496
  129 Torsion                 10     9    17    18          14.70208
  130 Torsion                 10     9    17    19        -163.40091
  131 Torsion                 11     9    17    18        -103.74034
  132 Torsion                 11     9    17    19          78.15667
  133 Torsion                 12    11     9    17          58.08279
  134 Torsion                 12    11    14    15          23.99348
  135 Torsion                 12    11    14    16        -152.99803
  136 Torsion                 13    11     9    17         174.44871
  137 Torsion                 13    11    14    15         -92.71492
  138 Torsion                 13    11    14    16          90.29357
  139 Torsion                 14    11     9    17         -64.25957
  140 Torsion                 17    19    21    22          33.01696
  141 Torsion                 17    19    21    23         149.78966
  142 Torsion                 17    19    21    34         -84.10584
  143 Torsion                 18    17    19    20         174.17205
  144 Torsion                 18    17    19    21           0.49462
  145 Torsion                 19    21    23    24          56.13226
  146 Torsion                 19    21    23    25         174.10581
  147 Torsion                 19    21    23    26         -64.93847
  148 Torsion                 19    21    34    35        -168.89225
  149 Torsion                 19    21    34    36          10.42305
  150 Torsion                 20    19    21    22        -140.56187
  151 Torsion                 20    19    21    23         -23.78918
  152 Torsion                 20    19    21    34         102.31533
  153 Torsion                 21    23    26    27         -91.54342
  154 Torsion                 21    23    26    28          26.10324
  155 Torsion                 21    23    26    29         147.36296
  156 Torsion                 21    34    36    37         179.39163
  157 Torsion                 21    34    36    38           3.29909
  158 Torsion                 22    21    23    24         173.16398
  159 Torsion                 22    21    23    25         -68.86247
  160 Torsion                 22    21    23    26          52.09325
  161 Torsion                 22    21    34    35          72.68992
  162 Torsion                 22    21    34    36        -107.99478
  163 Torsion                 23    21    34    35         -45.37536
  164 Torsion                 23    21    34    36         133.93994
  165 Torsion                 23    26    29    30          63.30257
  166 Torsion                 23    26    29    31        -117.72763
  167 Torsion                 24    23    21    34         -69.82661
  168 Torsion                 24    23    26    27         148.07510
  169 Torsion                 24    23    26    28         -94.27825
  170 Torsion                 24    23    26    29          26.98147
  171 Torsion                 25    23    21    34          48.14694
  172 Torsion                 25    23    26    27          30.42183
  173 Torsion                 25    23    26    28         148.06848
  174 Torsion                 25    23    26    29         -90.67180
  175 Torsion                 26    23    21    34         169.10267
  176 Torsion                 26    29    31    32           6.12366
  177 Torsion                 26    29    31    33         176.14866
  178 Torsion                 27    26    29    30         -58.02252
  179 Torsion                 27    26    29    31         120.94728
  180 Torsion                 28    26    29    30        -173.99704
  181 Torsion                 28    26    29    31           4.97276
  182 Torsion                 30    29    31    32        -174.87758
  183 Torsion                 30    29    31    33          -4.85257
  184 Torsion                 35    34    36    37          -1.28241
  185 Torsion                 35    34    36    38        -177.37494


            XYZ format geometry
            -------------------
    38
 geometry
 H                    -1.82555884    -3.45712672     2.80495235
 C                    -0.81206221    -3.15884750     2.54331311
 H                    -0.10222617    -3.90945034     2.88543764
 H                    -0.58246996    -2.19632847     2.99812022
 C                    -0.70949333    -3.02965825     1.04418278
 O                     0.07458140    -3.73233213     0.41880670
 N                    -1.48180133    -2.10627751     0.48511805
 H                    -1.97963673    -1.46931313     1.09852271
 C                    -1.43899755    -1.70081412    -0.92746904
 H                    -1.61661827    -2.56949093    -1.56120517
 C                    -2.54330571    -0.64855090    -1.19010301
 H                    -2.50748879    -0.36745992    -2.24379082
 H                    -3.51363178    -1.11412462    -1.00807439
 C                    -2.44613886     0.62404817    -0.32361169
 O                    -2.79597342     1.71238755    -0.82243649
 O                    -1.96823391     0.54211809     0.83111959
 C                    -0.07128678    -1.10828431    -1.31190457
 O                     0.49049765    -1.43363792    -2.35458682
 N                     0.47661353    -0.26303131    -0.43795112
 H                    -0.10986381     0.01111483     0.34751322
 C                     1.77896650     0.39406579    -0.58136709
 H                     1.95220171     0.58286697    -1.64225242
 C                     1.71789710     1.75622399     0.13799690
 H                     1.42384282     1.58286035     1.17561346
 H                     2.70321614     2.22491654     0.13929172
 C                     0.71825479     2.72723324    -0.52478686
 H                     1.23998827     3.32766435    -1.26892505
 H                    -0.06296240     2.17808546    -1.04868897
 C                     0.05128741     3.65985253     0.48225920
 O                     0.69246973     4.47279932     1.13157789
 N                    -1.25058681     3.60061561     0.64087346
 H                    -1.79757460     2.87164316     0.16315227
 H                    -1.65740737     4.17641494     1.34458944
 C                     2.95342577    -0.49053857    -0.10687627
 O                     4.08136868    -0.02705973     0.03159089
 N                     2.73176702    -1.77236730     0.16818468
 H                     3.50261659    -2.34067003     0.46667412
 H                     1.81266249    -2.16676060     0.01711917

 ==============================================================================
                                internuclear distances
 ------------------------------------------------------------------------------
       center one      |      center two      | atomic units |  angstroms
 ------------------------------------------------------------------------------
    2 C                |   1 H                |     2.05677  |     1.08839
    3 H                |   2 C                |     2.05652  |     1.08827
    4 H                |   2 C                |     2.05798  |     1.08904
    5 C                |   2 C                |     2.85004  |     1.50818
    6 O                |   5 C                |     2.31414  |     1.22459
    7 N                |   5 C                |     2.50818  |     1.32727
    8 H                |   7 N                |     1.91770  |     1.01480
    9 C                |   7 N                |     2.77837  |     1.47025
   10 H                |   9 C                |     2.05952  |     1.08985
   11 C                |   9 C                |     2.92495  |     1.54781
   12 H                |  11 C                |     2.06193  |     1.09112
   13 H                |  11 C                |     2.06268  |     1.09152
   14 C                |  11 C                |     2.91518  |     1.54265
   15 O                |  14 C                |     2.35701  |     1.24727
   16 O                |  14 C                |     2.36670  |     1.25240
   17 C                |   9 C                |     2.90890  |     1.53932
   18 O                |  17 C                |     2.32109  |     1.22827
   19 N                |  17 C                |     2.52011  |     1.33358
   20 H                |  19 N                |     1.92350  |     1.01787
   21 C                |  19 N                |     2.76989  |     1.46577
   22 H                |  21 C                |     2.06243  |     1.09139
   23 C                |  21 C                |     2.91330  |     1.54165
   24 H                |  23 C                |     2.06419  |     1.09232
   25 H                |  23 C                |     2.06190  |     1.09111
   26 C                |  23 C                |     2.91620  |     1.54319
   27 H                |  26 C                |     2.05838  |     1.08925
   28 H                |  26 C                |     2.05827  |     1.08919
   29 C                |  26 C                |     2.88378  |     1.52603
   30 O                |  29 C                |     2.30950  |     1.22213
   31 N                |  29 C                |     2.48090  |     1.31284
   32 H                |  31 N                |     1.94450  |     1.02899
   33 H                |  31 N                |     1.88240  |     0.99612
   34 C                |  21 C                |     2.91962  |     1.54500
   35 O                |  34 C                |     2.31924  |     1.22729
   36 N                |  34 C                |     2.51261  |     1.32961
   37 H                |  36 N                |     1.89564  |     1.00313
   38 H                |  36 N                |     1.91145  |     1.01149
 ------------------------------------------------------------------------------
                         number of included internuclear distances:         37
 ==============================================================================



 ==============================================================================
                                 internuclear angles
 ------------------------------------------------------------------------------
        center 1       |       center 2       |       center 3       |  degrees
 ------------------------------------------------------------------------------
    1 H                |   2 C                |   3 H                |   110.05
    1 H                |   2 C                |   4 H                |   109.76
    1 H                |   2 C                |   5 C                |   109.01
    3 H                |   2 C                |   4 H                |   109.93
    3 H                |   2 C                |   5 C                |   109.10
    4 H                |   2 C                |   5 C                |   108.97
    2 C                |   5 C                |   6 O                |   120.13
    2 C                |   5 C                |   7 N                |   116.02
    6 O                |   5 C                |   7 N                |   123.82
    5 C                |   7 N                |   8 H                |   117.87
    5 C                |   7 N                |   9 C                |   125.42
    8 H                |   7 N                |   9 C                |   114.96
    7 N                |   9 C                |  10 H                |   109.52
    7 N                |   9 C                |  11 C                |   109.25
    7 N                |   9 C                |  17 C                |   111.84
   10 H                |   9 C                |  11 C                |   109.08
   10 H                |   9 C                |  17 C                |   107.84
   11 C                |   9 C                |  17 C                |   109.26
    9 C                |  11 C                |  12 H                |   108.40
    9 C                |  11 C                |  13 H                |   108.42
    9 C                |  11 C                |  14 C                |   114.87
   12 H                |  11 C                |  13 H                |   107.46
   12 H                |  11 C                |  14 C                |   109.14
   13 H                |  11 C                |  14 C                |   108.31
   11 C                |  14 C                |  15 O                |   118.52
   11 C                |  14 C                |  16 O                |   119.21
   15 O                |  14 C                |  16 O                |   122.20
    9 C                |  17 C                |  18 O                |   121.09
    9 C                |  17 C                |  19 N                |   116.45
   18 O                |  17 C                |  19 N                |   122.43
   17 C                |  19 N                |  20 H                |   116.08
   17 C                |  19 N                |  21 C                |   125.81
   20 H                |  19 N                |  21 C                |   117.82
   19 N                |  21 C                |  22 H                |   108.28
   19 N                |  21 C                |  23 C                |   108.38
   19 N                |  21 C                |  34 C                |   112.87
   22 H                |  21 C                |  23 C                |   107.88
   22 H                |  21 C                |  34 C                |   106.08
   23 C                |  21 C                |  34 C                |   113.12
   21 C                |  23 C                |  24 H                |   108.28
   21 C                |  23 C                |  25 H                |   110.14
   21 C                |  23 C                |  26 C                |   112.41
   24 H                |  23 C                |  25 H                |   108.07
   24 H                |  23 C                |  26 C                |   109.48
   25 H                |  23 C                |  26 C                |   108.37
   23 C                |  26 C                |  27 H                |   109.27
   23 C                |  26 C                |  28 H                |   110.73
   23 C                |  26 C                |  29 C                |   112.60
   27 H                |  26 C                |  28 H                |   107.03
   27 H                |  26 C                |  29 C                |   108.86
   28 H                |  26 C                |  29 C                |   108.18
   26 C                |  29 C                |  30 O                |   121.86
   26 C                |  29 C                |  31 N                |   119.05
   30 O                |  29 C                |  31 N                |   119.08
   29 C                |  31 N                |  32 H                |   120.20
   29 C                |  31 N                |  33 H                |   117.66
   32 H                |  31 N                |  33 H                |   121.36
   21 C                |  34 C                |  35 O                |   121.14
   21 C                |  34 C                |  36 N                |   119.26
   35 O                |  34 C                |  36 N                |   119.60
   34 C                |  36 N                |  37 H                |   118.66
   34 C                |  36 N                |  38 H                |   119.77
   37 H                |  36 N                |  38 H                |   121.45
 ------------------------------------------------------------------------------
                            number of included internuclear angles:         63
 ==============================================================================



  library name resolved from: environment
  library file name is: </opt/rit/el9/20230413/app/linux-rhel9-x86_64_v3/gcc-11.2.1/nwchem-7.2.0-oxtctbuhfuzyfaoziquq6bki22grib3g/share/nwchem/libraries/>
  


 Summary of "ao basis" -> "" (cartesian)
 ------------------------------------------------------------------------------
       Tag                 Description            Shells   Functions and Types
 ---------------- ------------------------------  ------  ---------------------
 *                        aug-cc-pvdz                 on all atoms 


                      Basis "ao basis" -> "ao basis" (cartesian)
                      -----
  H (Hydrogen)
  ------------
            Exponent  Coefficients 
       -------------- ---------------------------------------------------------
  1 S  1.30100000E+01  0.019685
  1 S  1.96200000E+00  0.137977
  1 S  4.44600000E-01  0.478148

  2 S  1.22000000E-01  1.000000

  3 S  2.97400000E-02  1.000000

  4 P  7.27000000E-01  1.000000

  5 P  1.41000000E-01  1.000000

  C (Carbon)
  ----------
            Exponent  Coefficients 
       -------------- ---------------------------------------------------------
  1 S  6.66500000E+03  0.000692
  1 S  1.00000000E+03  0.005329
  1 S  2.28000000E+02  0.027077
  1 S  6.47100000E+01  0.101718
  1 S  2.10600000E+01  0.274740
  1 S  7.49500000E+00  0.448564
  1 S  2.79700000E+00  0.285074
  1 S  5.21500000E-01  0.015204

  2 S  6.66500000E+03 -0.000146
  2 S  1.00000000E+03 -0.001154
  2 S  2.28000000E+02 -0.005725
  2 S  6.47100000E+01 -0.023312
  2 S  2.10600000E+01 -0.063955
  2 S  7.49500000E+00 -0.149981
  2 S  2.79700000E+00 -0.127262
  2 S  5.21500000E-01  0.544529

  3 S  1.59600000E-01  1.000000

  4 S  4.69000000E-02  1.000000

  5 P  9.43900000E+00  0.038109
  5 P  2.00200000E+00  0.209480
  5 P  5.45600000E-01  0.508557

  6 P  1.51700000E-01  1.000000

  7 P  4.04100000E-02  1.000000

  8 D  5.50000000E-01  1.000000

  9 D  1.51000000E-01  1.000000

  O (Oxygen)
  ----------
            Exponent  Coefficients 
       -------------- ---------------------------------------------------------
  1 S  1.17200000E+04  0.000710
  1 S  1.75900000E+03  0.005470
  1 S  4.00800000E+02  0.027837
  1 S  1.13700000E+02  0.104800
  1 S  3.70300000E+01  0.283062
  1 S  1.32700000E+01  0.448719
  1 S  5.02500000E+00  0.270952
  1 S  1.01300000E+00  0.015458

  2 S  1.17200000E+04 -0.000160
  2 S  1.75900000E+03 -0.001263
  2 S  4.00800000E+02 -0.006267
  2 S  1.13700000E+02 -0.025716
  2 S  3.70300000E+01 -0.070924
  2 S  1.32700000E+01 -0.165411
  2 S  5.02500000E+00 -0.116955
  2 S  1.01300000E+00  0.557368

  3 S  3.02300000E-01  1.000000

  4 S  7.89600000E-02  1.000000

  5 P  1.77000000E+01  0.043018
  5 P  3.85400000E+00  0.228913
  5 P  1.04600000E+00  0.508728

  6 P  2.75300000E-01  1.000000

  7 P  6.85600000E-02  1.000000

  8 D  1.18500000E+00  1.000000

  9 D  3.32000000E-01  1.000000

  N (Nitrogen)
  ------------
            Exponent  Coefficients 
       -------------- ---------------------------------------------------------
  1 S  9.04600000E+03  0.000700
  1 S  1.35700000E+03  0.005389
  1 S  3.09300000E+02  0.027406
  1 S  8.77300000E+01  0.103207
  1 S  2.85600000E+01  0.278723
  1 S  1.02100000E+01  0.448540
  1 S  3.83800000E+00  0.278238
  1 S  7.46600000E-01  0.015440

  2 S  9.04600000E+03 -0.000153
  2 S  1.35700000E+03 -0.001208
  2 S  3.09300000E+02 -0.005992
  2 S  8.77300000E+01 -0.024544
  2 S  2.85600000E+01 -0.067459
  2 S  1.02100000E+01 -0.158078
  2 S  3.83800000E+00 -0.121831
  2 S  7.46600000E-01  0.549003

  3 S  2.24800000E-01  1.000000

  4 S  6.12400000E-02  1.000000

  5 P  1.35500000E+01  0.039919
  5 P  2.91700000E+00  0.217169
  5 P  7.97300000E-01  0.510319

  6 P  2.18500000E-01  1.000000

  7 P  5.61100000E-02  1.000000

  8 D  8.17000000E-01  1.000000

  9 D  2.30000000E-01  1.000000



 Summary of "ao basis" -> "ao basis" (cartesian)
 ------------------------------------------------------------------------------
       Tag                 Description            Shells   Functions and Types
 ---------------- ------------------------------  ------  ---------------------
 H                        aug-cc-pvdz                5        9   3s2p
 C                        aug-cc-pvdz                9       25   4s3p2d
 O                        aug-cc-pvdz                9       25   4s3p2d
 N                        aug-cc-pvdz                9       25   4s3p2d


 ------------------------------------------------------------------------
 scf: no. of closed-shell electrons is not even!                   0
 ------------------------------------------------------------------------
 ------------------------------------------------------------------------
  current input line : 
 scf: no. of closed-shell electrons is not even!                   0
 ------------------------------------------------------------------------
 ------------------------------------------------------------------------
  current input line : 
     0: 
 ------------------------------------------------------------------------
 scf: no. of closed-shell electrons is not even!                   0
 ------------------------------------------------------------------------
 ------------------------------------------------------------------------
  current input line : 
     0: 
 ------------------------------------------------------------------------
 ------------------------------------------------------------------------
 There is an error in the input file
 scf: no. of closed-shell electrons is not even!                   0
 ------------------------------------------------------------------------
 ------------------------------------------------------------------------
  current input line : 
     0: 
 ------------------------------------------------------------------------
 ------------------------------------------------------------------------
 There is an error in the input file
 ------------------------------------------------------------------------
 For more information see the NWChem manual at https://nwchemgit.github.io


 For further details see manual section:                                                                                                                                                                                                                                                                
 scf: no. of closed-shell electrons is not even!                   0
 ------------------------------------------------------------------------
 ------------------------------------------------------------------------
  current input line : 
     0: 
 ------------------------------------------------------------------------
 ------------------------------------------------------------------------
 There is an error in the input file
 ------------------------------------------------------------------------
 For more information see the NWChem manual at https://nwchemgit.github.io


 For further details see manual section:                                                                                                                                                                                                                                                                
 scf: no. of closed-shell electrons is not even!                   0
 ------------------------------------------------------------------------
 ------------------------------------------------------------------------
  current input line : 
     0: 
 ------------------------------------------------------------------------
 ------------------------------------------------------------------------
 There is an error in the input file
 ------------------------------------------------------------------------
 For more information see the NWChem manual at https://nwchemgit.github.io


 For further details see manual section:                                                                                                                                                                                                                                                                
 scf: no. of closed-shell electrons is not even!                   0
 ------------------------------------------------------------------------
 ------------------------------------------------------------------------
  current input line : 
     0: 
 ------------------------------------------------------------------------
 ------------------------------------------------------------------------
 There is an error in the input file
 ------------------------------------------------------------------------
 For more information see the NWChem manual at https://nwchemgit.github.io


 For further details see manual section:                                                                                                                                                                                                                                                                
     0: 
 ------------------------------------------------------------------------
 ------------------------------------------------------------------------
 There is an error in the input file
 ------------------------------------------------------------------------
 For more information see the NWChem manual at https://nwchemgit.github.io


 For further details see manual section:                                                                                                                                                                                                                                                                
1:scf: no. of closed-shell electrons is not even!:Received an Error in Communication
 ------------------------------------------------------------------------
 There is an error in the input file
 ------------------------------------------------------------------------
 For more information see the NWChem manual at https://nwchemgit.github.io


 For further details see manual section:                                                                                                                                                                                                                                                                
2:scf: no. of closed-shell electrons is not even!:Received an Error in Communication
 ------------------------------------------------------------------------
 For more information see the NWChem manual at https://nwchemgit.github.io


 For further details see manual section:                                                                                                                                                                                                                                                                
3:scf: no. of closed-shell electrons is not even!:Received an Error in Communication
4:scf: no. of closed-shell electrons is not even!:Received an Error in Communication
5:scf: no. of closed-shell electrons is not even!:Received an Error in Communication
6:scf: no. of closed-shell electrons is not even!:Received an Error in Communication
7:scf: no. of closed-shell electrons is not even!:Received an Error in Communication
 scf: no. of closed-shell electrons is not even!                   0
 ------------------------------------------------------------------------
 ------------------------------------------------------------------------
  current input line : 
    53: task scf energy
 ------------------------------------------------------------------------
 ------------------------------------------------------------------------
 There is an error in the input file
 ------------------------------------------------------------------------
 For more information see the NWChem manual at https://nwchemgit.github.io


 For further details see manual section:                                                                                                                                                                                                                                                                
0:scf: no. of closed-shell electrons is not even!:Received an Error in Communication
--------------------------------------------------------------------------
MPI_ABORT was invoked on rank 5 in communicator MPI COMMUNICATOR 3 DUP FROM 0
with errorcode -1.

NOTE: invoking MPI_ABORT causes Open MPI to kill all MPI processes.
You may or may not see output from other processes, depending on
exactly when Open MPI kills them.
--------------------------------------------------------------------------
--------------------------------------------------------------------------
MPI_ABORT was invoked on rank 3 in communicator MPI COMMUNICATOR 3 DUP FROM 0
with errorcode -1.

NOTE: invoking MPI_ABORT causes Open MPI to kill all MPI processes.
You may or may not see output from other processes, depending on
exactly when Open MPI kills them.
--------------------------------------------------------------------------
--------------------------------------------------------------------------
MPI_ABORT was invoked on rank 0 in communicator MPI COMMUNICATOR 3 DUP FROM 0
with errorcode -1.

NOTE: invoking MPI_ABORT causes Open MPI to kill all MPI processes.
You may or may not see output from other processes, depending on
exactly when Open MPI kills them.
--------------------------------------------------------------------------
--------------------------------------------------------------------------
MPI_ABORT was invoked on rank 6 in communicator MPI COMMUNICATOR 3 DUP FROM 0
with errorcode -1.

NOTE: invoking MPI_ABORT causes Open MPI to kill all MPI processes.
You may or may not see output from other processes, depending on
exactly when Open MPI kills them.
--------------------------------------------------------------------------
--------------------------------------------------------------------------
MPI_ABORT was invoked on rank 2 in communicator MPI COMMUNICATOR 3 DUP FROM 0
with errorcode -1.

NOTE: invoking MPI_ABORT causes Open MPI to kill all MPI processes.
You may or may not see output from other processes, depending on
exactly when Open MPI kills them.
--------------------------------------------------------------------------
--------------------------------------------------------------------------
MPI_ABORT was invoked on rank 1 in communicator MPI COMMUNICATOR 3 DUP FROM 0
with errorcode -1.

NOTE: invoking MPI_ABORT causes Open MPI to kill all MPI processes.
You may or may not see output from other processes, depending on
exactly when Open MPI kills them.
--------------------------------------------------------------------------
--------------------------------------------------------------------------
MPI_ABORT was invoked on rank 7 in communicator MPI COMMUNICATOR 3 DUP FROM 0
with errorcode -1.

NOTE: invoking MPI_ABORT causes Open MPI to kill all MPI processes.
You may or may not see output from other processes, depending on
exactly when Open MPI kills them.
--------------------------------------------------------------------------
--------------------------------------------------------------------------
MPI_ABORT was invoked on rank 4 in communicator MPI COMMUNICATOR 3 DUP FROM 0
with errorcode -1.

NOTE: invoking MPI_ABORT causes Open MPI to kill all MPI processes.
You may or may not see output from other processes, depending on
exactly when Open MPI kills them.
--------------------------------------------------------------------------
slurmstepd: error: *** STEP 6619389.104 ON nova21-swift-1 CANCELLED AT 2025-07-11T03:00:05 ***
srun: Job step aborted: Waiting up to 32 seconds for job step to finish.
slurmstepd: error: --task-epilog failed status=9
srun: error: nova21-swift-1: tasks 0-4,6-7: Killed
srun: error: nova21-swift-1: task 5: Exited with exit code 255
