export TMOUT=5400
export TMPDIR=/tmp
export PTMPDIR=/tmp/ptmp
 argument  1 = inputs/ASP_GLY_2.nw



============================== echo of input deck ==============================
start ASP_GLY_2
geometry
H          4.92800        9.12200       -0.99700
C          5.74900        9.24700       -1.69900
H          6.65800        9.51700       -1.16600
H          5.50200       10.02700       -2.41600
C          5.97000        7.94800       -2.44700
O          5.83200        7.92500       -3.66100
N          6.30300        6.85200       -1.77000
H          6.52100        6.02600       -2.31900
C          6.57300        6.74700       -0.32700
H          5.83800        7.33100        0.22600
C          6.43400        5.27900        0.12400
H          6.50200        5.24900        1.21300
H          5.44400        4.91500       -0.15400
C          7.49400        4.34100       -0.47300
O          8.04400        3.53200        0.30200
O          7.83600        4.51100       -1.66600
C          7.97100        7.28100        0.04600
O          8.10400        8.03500        1.00800
N          8.99600        6.92700       -0.73700
H          8.78700        6.24000       -1.45900
C         10.40300        7.23900       -0.46900
H         10.93100        7.29100       -1.42000
H         10.47200        8.21300        0.01400
C         11.13900        6.22000        0.41600
O         12.26300        6.47900        0.83400
N         10.56400        5.06200        0.72100
H          9.65000        4.81000        0.36000
H         11.06300        4.41400        1.30400
end

basis
 * library aug-cc-pvdz
end

echo

scf
 direct
end

task scf energy
================================================================================


                                         
                                         


             Northwest Computational Chemistry Package (NWChem) 7.2.0
             --------------------------------------------------------


                    Environmental Molecular Sciences Laboratory
                       Pacific Northwest National Laboratory
                                Richland, WA 99352

                              Copyright (c) 1994-2022
                       Pacific Northwest National Laboratory
                            Battelle Memorial Institute

             NWChem is an open-source computational chemistry package
                        distributed under the terms of the
                      Educational Community License (ECL) 2.0
             A copy of the license is included with this distribution
                              in the LICENSE.TXT file

                                  ACKNOWLEDGMENT
                                  --------------

            This software and its documentation were developed at the
            EMSL at Pacific Northwest National Laboratory, a multiprogram
            national laboratory, operated for the U.S. Department of Energy
            by Battelle under Contract Number DE-AC05-76RL01830. Support
            for this work was provided by the Department of Energy Office
            of Biological and Environmental Research, Office of Basic
            Energy Sciences, and the Office of Advanced Scientific Computing.


           Job information
           ---------------

    hostname        = nova21-swift-3
    program         = /opt/rit/el9/20230413/app/linux-rhel9-x86_64_v3/gcc-11.2.1/nwchem-7.2.0-oxtctbuhfuzyfaoziquq6bki22grib3g/bin/nwchem
    date            = Fri Jul 11 10:01:44 2025

    compiled        = Wed_May_17_23:46:39_2023
    source          = /tmp/root/spack-stage/spack-stage-nwchem-7.2.0-oxtctbuhfuzyfaoziquq6bki22grib3g/spack-src
    nwchem branch   = 7.2.0
    nwchem revision = d0d141fd
    ga revision     = 5.8.0
    use scalapack   = T
    input           = inputs/ASP_GLY_2.nw
    prefix          = ASP_GLY_2.
    data base       = ./ASP_GLY_2.db
    status          = startup
    nproc           =        8
    time left       =     -1s



           Memory information
           ------------------

    heap     =   26214396 doubles =    200.0 Mbytes
    stack    =   26214401 doubles =    200.0 Mbytes
    global   =   52428800 doubles =    400.0 Mbytes (distinct from heap & stack)
    total    =  104857597 doubles =    800.0 Mbytes
    verify   = yes
    hardfail = no 


           Directory information
           ---------------------

  0 permanent = .
  0 scratch   = .




                                NWChem Input Module
                                -------------------



 Scaling coordinates for geometry "geometry" by  1.889725989
 (inverse scale =  0.529177249)

 C1  symmetry detected

          ------
          auto-z
          ------
  no constraints, skipping    0.0000000000000000     
  no constraints, skipping    0.0000000000000000     


                             Geometry "geometry" -> ""
                             -------------------------

 Output coordinates in angstroms (scale by  1.889725989 to convert to a.u.)

  No.       Tag          Charge          X              Y              Z
 ---- ---------------- ---------- -------------- -------------- --------------
    1 H                    1.0000     1.19313787     3.68457042     1.47606139
    2 C                    6.0000     1.63506962     3.37577423     0.53170381
    3 H                    1.0000     2.23327609     2.47865379     0.67520963
    4 H                    1.0000     2.26359229     4.17424419     0.14324147
    5 C                    6.0000     0.53225962     3.09195789    -0.46779825
    6 O                    8.0000     0.46861197     3.75348672    -1.49332133
    7 N                    7.0000    -0.35328955     2.13296188    -0.20979956
    8 H                    1.0000    -1.02362916     1.92257215    -0.94299938
    9 C                    6.0000    -0.35814520     1.21437709     0.94013627
   10 H                    1.0000    -0.11233939     1.76396286     1.84822491
   11 C                    6.0000    -1.76821538     0.61849195     1.12552502
   12 H                    1.0000    -1.77950311     0.05347449     2.05937344
   13 H                    1.0000    -2.48695472     1.43297826     1.22505300
   14 C                    6.0000    -2.21276437    -0.29881541    -0.02372534
   15 O                    8.0000    -2.75033120    -1.38228919     0.28402855
   16 O                    8.0000    -1.91166139     0.02560870    -1.19556108
   17 C                    6.0000     0.67538839     0.08004222     0.78592306
   18 O                    8.0000     1.41249467    -0.21133367     1.72582914
   19 N                    7.0000     0.75663068    -0.52314195    -0.40512629
   20 H                    1.0000     0.04931925    -0.25643655    -1.08741126
   21 C                    6.0000     1.59025681    -1.69285013    -0.69781597
   22 H                    1.0000     1.85300737    -1.67229532    -1.75442784
   23 H                    1.0000     2.50943972    -1.63685127    -0.11584269
   24 C                    6.0000     0.93086627    -3.05125022    -0.40931068
   25 O                    8.0000     1.60389221    -4.07576943    -0.46007941
   26 N                    7.0000    -0.36249523    -3.11641118    -0.11336457
   27 H                    1.0000    -0.94768898    -2.28782823    -0.09854705
   28 H                    1.0000    -0.76992318    -4.01489686     0.07510281

      Atomic Mass 
      ----------- 

      H                  1.007825
      C                 12.000000
      O                 15.994910
      N                 14.003070


 Effective nuclear repulsion energy (a.u.)    1177.1820212513

            Nuclear Dipole moment (a.u.) 
            ----------------------------
        X                 Y               Z
 ---------------- ---------------- ----------------
     0.0000000000    -0.0000000000     0.0000000000



                                Z-matrix (autoz)
                                -------- 

 Units are Angstrom for bonds and degrees for angles

      Type          Name      I     J     K     L     M      Value
      ----------- --------  ----- ----- ----- ----- ----- ----------
    1 Stretch                  1     2                       1.08741
    2 Stretch                  2     3                       1.08778
    3 Stretch                  2     4                       1.08789
    4 Stretch                  2     5                       1.51517
    5 Stretch                  5     6                       1.22203
    6 Stretch                  5     7                       1.33058
    7 Stretch                  7     8                       1.01548
    8 Stretch                  7     9                       1.47179
    9 Stretch                  9    10                       1.08954
   10 Stretch                  9    11                       1.54199
   11 Stretch                  9    17                       1.54230
   12 Stretch                 11    12                       1.09153
   13 Stretch                 11    13                       1.09082
   14 Stretch                 11    14                       1.53618
   15 Stretch                 14    15                       1.24804
   16 Stretch                 14    16                       1.25264
   17 Stretch                 17    18                       1.22949
   18 Stretch                 17    19                       1.33755
   19 Stretch                 19    20                       1.01830
   20 Stretch                 19    21                       1.46588
   21 Stretch                 21    22                       1.08899
   22 Stretch                 21    23                       1.08937
   23 Stretch                 21    24                       1.53730
   24 Stretch                 24    25                       1.22686
   25 Stretch                 24    26                       1.32839
   26 Stretch                 26    27                       1.01451
   27 Stretch                 26    28                       1.00439
   28 Bend                     1     2     3               110.06742
   29 Bend                     1     2     4               109.66239
   30 Bend                     1     2     5               109.28526
   31 Bend                     2     5     6               119.34664
   32 Bend                     2     5     7               119.43959
   33 Bend                     3     2     4               109.55457
   34 Bend                     3     2     5               109.43924
   35 Bend                     4     2     5               108.81061
   36 Bend                     5     7     8               116.65769
   37 Bend                     5     7     9               127.12271
   38 Bend                     6     5     7               121.21263
   39 Bend                     7     9    10               109.61093
   40 Bend                     7     9    11               109.76348
   41 Bend                     7     9    17               112.25319
   42 Bend                     8     7     9               115.63535
   43 Bend                     9    11    12               108.20087
   44 Bend                     9    11    13               108.96282
   45 Bend                     9    11    14               113.91864
   46 Bend                     9    17    18               119.97467
   47 Bend                     9    17    19               117.47855
   48 Bend                    10     9    11               107.51933
   49 Bend                    10     9    17               107.64669
   50 Bend                    11     9    17               109.91318
   51 Bend                    11    14    15               117.29449
   52 Bend                    11    14    16               118.40149
   53 Bend                    12    11    13               107.55566
   54 Bend                    12    11    14               109.14471
   55 Bend                    13    11    14               108.87168
   56 Bend                    15    14    16               123.99078
   57 Bend                    17    19    20               115.87031
   58 Bend                    17    19    21               124.90297
   59 Bend                    18    17    19               122.51020
   60 Bend                    19    21    22               108.41411
   61 Bend                    19    21    23               109.39963
   62 Bend                    19    21    24               115.06830
   63 Bend                    20    19    21               118.04863
   64 Bend                    21    24    25               119.65858
   65 Bend                    21    24    26               120.18366
   66 Bend                    22    21    23               108.28786
   67 Bend                    22    21    24               107.59352
   68 Bend                    23    21    24               107.88352
   69 Bend                    24    26    27               121.65533
   70 Bend                    24    26    28               118.72704
   71 Bend                    25    24    26               120.15683
   72 Bend                    27    26    28               119.59663
   73 Torsion                  1     2     5     6         118.45649
   74 Torsion                  1     2     5     7         -61.15817
   75 Torsion                  2     5     7     8        -174.75685
   76 Torsion                  2     5     7     9          -3.95893
   77 Torsion                  3     2     5     6        -120.94688
   78 Torsion                  3     2     5     7          59.43846
   79 Torsion                  4     2     5     6          -1.26503
   80 Torsion                  4     2     5     7         179.12031
   81 Torsion                  5     7     9    10          42.39902
   82 Torsion                  5     7     9    11         160.27667
   83 Torsion                  5     7     9    17         -77.17190
   84 Torsion                  6     5     7     8           5.63588
   85 Torsion                  6     5     7     9         176.43381
   86 Torsion                  7     9    11    12        -172.29221
   87 Torsion                  7     9    11    13         -55.63091
   88 Torsion                  7     9    11    14          66.14096
   89 Torsion                  7     9    17    18         133.71180
   90 Torsion                  7     9    17    19         -44.14362
   91 Torsion                  8     7     9    10        -146.72211
   92 Torsion                  8     7     9    11         -28.84446
   93 Torsion                  8     7     9    17          93.70697
   94 Torsion                  9    11    14    15         134.86772
   95 Torsion                  9    11    14    16         -38.96474
   96 Torsion                  9    17    19    20          -6.93183
   97 Torsion                  9    17    19    21        -174.23464
   98 Torsion                 10     9    11    12         -53.12195
   99 Torsion                 10     9    11    13          63.53935
  100 Torsion                 10     9    11    14        -174.68878
  101 Torsion                 10     9    17    18          13.00044
  102 Torsion                 10     9    17    19        -164.85499
  103 Torsion                 11     9    17    18        -103.82152
  104 Torsion                 11     9    17    19          78.32306
  105 Torsion                 12    11     9    17          63.77969
  106 Torsion                 12    11    14    15          13.82542
  107 Torsion                 12    11    14    16        -160.00704
  108 Torsion                 13    11     9    17        -179.55901
  109 Torsion                 13    11    14    15        -103.31003
  110 Torsion                 13    11    14    16          82.85751
  111 Torsion                 14    11     9    17         -57.78714
  112 Torsion                 17    19    21    22        -152.37111
  113 Torsion                 17    19    21    23         -34.47481
  114 Torsion                 17    19    21    24          87.13585
  115 Torsion                 18    17    19    20         175.27114
  116 Torsion                 18    17    19    21           7.96833
  117 Torsion                 19    21    24    25        -170.76117
  118 Torsion                 19    21    24    26           9.58783
  119 Torsion                 20    19    21    22          40.57831
  120 Torsion                 20    19    21    23         158.47461
  121 Torsion                 20    19    21    24         -79.91473
  122 Torsion                 21    24    26    27           1.93122
  123 Torsion                 21    24    26    28        -179.74349
  124 Torsion                 22    21    24    25          68.29695
  125 Torsion                 22    21    24    26        -111.35406
  126 Torsion                 23    21    24    25         -48.33260
  127 Torsion                 23    21    24    26         132.01639
  128 Torsion                 25    24    26    27        -177.71803
  129 Torsion                 25    24    26    28           0.60726


            XYZ format geometry
            -------------------
    28
 geometry
 H                     1.19313787     3.68457042     1.47606139
 C                     1.63506962     3.37577423     0.53170381
 H                     2.23327609     2.47865379     0.67520963
 H                     2.26359229     4.17424419     0.14324147
 C                     0.53225962     3.09195789    -0.46779825
 O                     0.46861197     3.75348672    -1.49332133
 N                    -0.35328955     2.13296188    -0.20979956
 H                    -1.02362916     1.92257215    -0.94299938
 C                    -0.35814520     1.21437709     0.94013627
 H                    -0.11233939     1.76396286     1.84822491
 C                    -1.76821538     0.61849195     1.12552502
 H                    -1.77950311     0.05347449     2.05937344
 H                    -2.48695472     1.43297826     1.22505300
 C                    -2.21276437    -0.29881541    -0.02372534
 O                    -2.75033120    -1.38228919     0.28402855
 O                    -1.91166139     0.02560870    -1.19556108
 C                     0.67538839     0.08004222     0.78592306
 O                     1.41249467    -0.21133367     1.72582914
 N                     0.75663068    -0.52314195    -0.40512629
 H                     0.04931925    -0.25643655    -1.08741126
 C                     1.59025681    -1.69285013    -0.69781597
 H                     1.85300737    -1.67229532    -1.75442784
 H                     2.50943972    -1.63685127    -0.11584269
 C                     0.93086627    -3.05125022    -0.40931068
 O                     1.60389221    -4.07576943    -0.46007941
 N                    -0.36249523    -3.11641118    -0.11336457
 H                    -0.94768898    -2.28782823    -0.09854705
 H                    -0.76992318    -4.01489686     0.07510281

 ==============================================================================
                                internuclear distances
 ------------------------------------------------------------------------------
       center one      |      center two      | atomic units |  angstroms
 ------------------------------------------------------------------------------
    2 C                |   1 H                |     2.05492  |     1.08741
    3 H                |   2 C                |     2.05561  |     1.08778
    4 H                |   2 C                |     2.05581  |     1.08789
    5 C                |   2 C                |     2.86326  |     1.51517
    6 O                |   5 C                |     2.30931  |     1.22203
    7 N                |   5 C                |     2.51443  |     1.33058
    8 H                |   7 N                |     1.91898  |     1.01548
    9 C                |   7 N                |     2.78129  |     1.47179
   10 H                |   9 C                |     2.05893  |     1.08954
   11 C                |   9 C                |     2.91395  |     1.54199
   12 H                |  11 C                |     2.06270  |     1.09153
   13 H                |  11 C                |     2.06134  |     1.09082
   14 C                |  11 C                |     2.90296  |     1.53618
   15 O                |  14 C                |     2.35846  |     1.24804
   16 O                |  14 C                |     2.36715  |     1.25264
   17 C                |   9 C                |     2.91452  |     1.54230
   18 O                |  17 C                |     2.32340  |     1.22949
   19 N                |  17 C                |     2.52760  |     1.33755
   20 H                |  19 N                |     1.92431  |     1.01830
   21 C                |  19 N                |     2.77012  |     1.46588
   22 H                |  21 C                |     2.05788  |     1.08899
   23 H                |  21 C                |     2.05861  |     1.08937
   24 C                |  21 C                |     2.90507  |     1.53730
   25 O                |  24 C                |     2.31843  |     1.22686
   26 N                |  24 C                |     2.51029  |     1.32839
   27 H                |  26 N                |     1.91714  |     1.01451
   28 H                |  26 N                |     1.89802  |     1.00439
 ------------------------------------------------------------------------------
                         number of included internuclear distances:         27
 ==============================================================================



 ==============================================================================
                                 internuclear angles
 ------------------------------------------------------------------------------
        center 1       |       center 2       |       center 3       |  degrees
 ------------------------------------------------------------------------------
    1 H                |   2 C                |   3 H                |   110.07
    1 H                |   2 C                |   4 H                |   109.66
    1 H                |   2 C                |   5 C                |   109.29
    3 H                |   2 C                |   4 H                |   109.55
    3 H                |   2 C                |   5 C                |   109.44
    4 H                |   2 C                |   5 C                |   108.81
    2 C                |   5 C                |   6 O                |   119.35
    2 C                |   5 C                |   7 N                |   119.44
    6 O                |   5 C                |   7 N                |   121.21
    5 C                |   7 N                |   8 H                |   116.66
    5 C                |   7 N                |   9 C                |   127.12
    8 H                |   7 N                |   9 C                |   115.64
    7 N                |   9 C                |  10 H                |   109.61
    7 N                |   9 C                |  11 C                |   109.76
    7 N                |   9 C                |  17 C                |   112.25
   10 H                |   9 C                |  11 C                |   107.52
   10 H                |   9 C                |  17 C                |   107.65
   11 C                |   9 C                |  17 C                |   109.91
    9 C                |  11 C                |  12 H                |   108.20
    9 C                |  11 C                |  13 H                |   108.96
    9 C                |  11 C                |  14 C                |   113.92
   12 H                |  11 C                |  13 H                |   107.56
   12 H                |  11 C                |  14 C                |   109.14
   13 H                |  11 C                |  14 C                |   108.87
   11 C                |  14 C                |  15 O                |   117.29
   11 C                |  14 C                |  16 O                |   118.40
   15 O                |  14 C                |  16 O                |   123.99
    9 C                |  17 C                |  18 O                |   119.97
    9 C                |  17 C                |  19 N                |   117.48
   18 O                |  17 C                |  19 N                |   122.51
   17 C                |  19 N                |  20 H                |   115.87
   17 C                |  19 N                |  21 C                |   124.90
   20 H                |  19 N                |  21 C                |   118.05
   19 N                |  21 C                |  22 H                |   108.41
   19 N                |  21 C                |  23 H                |   109.40
   19 N                |  21 C                |  24 C                |   115.07
   22 H                |  21 C                |  23 H                |   108.29
   22 H                |  21 C                |  24 C                |   107.59
   23 H                |  21 C                |  24 C                |   107.88
   21 C                |  24 C                |  25 O                |   119.66
   21 C                |  24 C                |  26 N                |   120.18
   25 O                |  24 C                |  26 N                |   120.16
   24 C                |  26 N                |  27 H                |   121.66
   24 C                |  26 N                |  28 H                |   118.73
   27 H                |  26 N                |  28 H                |   119.60
 ------------------------------------------------------------------------------
                            number of included internuclear angles:         45
 ==============================================================================



  library name resolved from: environment
  library file name is: </opt/rit/el9/20230413/app/linux-rhel9-x86_64_v3/gcc-11.2.1/nwchem-7.2.0-oxtctbuhfuzyfaoziquq6bki22grib3g/share/nwchem/libraries/>
  


 Summary of "ao basis" -> "" (cartesian)
 ------------------------------------------------------------------------------
       Tag                 Description            Shells   Functions and Types
 ---------------- ------------------------------  ------  ---------------------
 *                        aug-cc-pvdz                 on all atoms 


                      Basis "ao basis" -> "ao basis" (cartesian)
                      -----
  H (Hydrogen)
  ------------
            Exponent  Coefficients 
       -------------- ---------------------------------------------------------
  1 S  1.30100000E+01  0.019685
  1 S  1.96200000E+00  0.137977
  1 S  4.44600000E-01  0.478148

  2 S  1.22000000E-01  1.000000

  3 S  2.97400000E-02  1.000000

  4 P  7.27000000E-01  1.000000

  5 P  1.41000000E-01  1.000000

  C (Carbon)
  ----------
            Exponent  Coefficients 
       -------------- ---------------------------------------------------------
  1 S  6.66500000E+03  0.000692
  1 S  1.00000000E+03  0.005329
  1 S  2.28000000E+02  0.027077
  1 S  6.47100000E+01  0.101718
  1 S  2.10600000E+01  0.274740
  1 S  7.49500000E+00  0.448564
  1 S  2.79700000E+00  0.285074
  1 S  5.21500000E-01  0.015204

  2 S  6.66500000E+03 -0.000146
  2 S  1.00000000E+03 -0.001154
  2 S  2.28000000E+02 -0.005725
  2 S  6.47100000E+01 -0.023312
  2 S  2.10600000E+01 -0.063955
  2 S  7.49500000E+00 -0.149981
  2 S  2.79700000E+00 -0.127262
  2 S  5.21500000E-01  0.544529

  3 S  1.59600000E-01  1.000000

  4 S  4.69000000E-02  1.000000

  5 P  9.43900000E+00  0.038109
  5 P  2.00200000E+00  0.209480
  5 P  5.45600000E-01  0.508557

  6 P  1.51700000E-01  1.000000

  7 P  4.04100000E-02  1.000000

  8 D  5.50000000E-01  1.000000

  9 D  1.51000000E-01  1.000000

  O (Oxygen)
  ----------
            Exponent  Coefficients 
       -------------- ---------------------------------------------------------
  1 S  1.17200000E+04  0.000710
  1 S  1.75900000E+03  0.005470
  1 S  4.00800000E+02  0.027837
  1 S  1.13700000E+02  0.104800
  1 S  3.70300000E+01  0.283062
  1 S  1.32700000E+01  0.448719
  1 S  5.02500000E+00  0.270952
  1 S  1.01300000E+00  0.015458

  2 S  1.17200000E+04 -0.000160
  2 S  1.75900000E+03 -0.001263
  2 S  4.00800000E+02 -0.006267
  2 S  1.13700000E+02 -0.025716
  2 S  3.70300000E+01 -0.070924
  2 S  1.32700000E+01 -0.165411
  2 S  5.02500000E+00 -0.116955
  2 S  1.01300000E+00  0.557368

  3 S  3.02300000E-01  1.000000

  4 S  7.89600000E-02  1.000000

  5 P  1.77000000E+01  0.043018
  5 P  3.85400000E+00  0.228913
  5 P  1.04600000E+00  0.508728

  6 P  2.75300000E-01  1.000000

  7 P  6.85600000E-02  1.000000

  8 D  1.18500000E+00  1.000000

  9 D  3.32000000E-01  1.000000

  N (Nitrogen)
  ------------
            Exponent  Coefficients 
       -------------- ---------------------------------------------------------
  1 S  9.04600000E+03  0.000700
  1 S  1.35700000E+03  0.005389
  1 S  3.09300000E+02  0.027406
  1 S  8.77300000E+01  0.103207
  1 S  2.85600000E+01  0.278723
  1 S  1.02100000E+01  0.448540
  1 S  3.83800000E+00  0.278238
  1 S  7.46600000E-01  0.015440

  2 S  9.04600000E+03 -0.000153
  2 S  1.35700000E+03 -0.001208
  2 S  3.09300000E+02 -0.005992
  2 S  8.77300000E+01 -0.024544
  2 S  2.85600000E+01 -0.067459
  2 S  1.02100000E+01 -0.158078
  2 S  3.83800000E+00 -0.121831
  2 S  7.46600000E-01  0.549003

  3 S  2.24800000E-01  1.000000

  4 S  6.12400000E-02  1.000000

  5 P  1.35500000E+01  0.039919
  5 P  2.91700000E+00  0.217169
  5 P  7.97300000E-01  0.510319

  6 P  2.18500000E-01  1.000000

  7 P  5.61100000E-02  1.000000

  8 D  8.17000000E-01  1.000000

  9 D  2.30000000E-01  1.000000



 Summary of "ao basis" -> "ao basis" (cartesian)
 ------------------------------------------------------------------------------
       Tag                 Description            Shells   Functions and Types
 ---------------- ------------------------------  ------  ---------------------
 H                        aug-cc-pvdz                5        9   3s2p
 C                        aug-cc-pvdz                9       25   4s3p2d
 O                        aug-cc-pvdz                9       25   4s3p2d
 N                        aug-cc-pvdz                9       25   4s3p2d


 ------------------------------------------------------------------------
 scf: no. of closed-shell electrons is not even!                   0
 ------------------------------------------------------------------------
 scf: no. of closed-shell electrons is not even!                   0
 ------------------------------------------------------------------------
 ------------------------------------------------------------------------
  current input line : 
     0: 
 scf: no. of closed-shell electrons is not even!                   0
 scf: no. of closed-shell electrons is not even!                   0
 ------------------------------------------------------------------------
 ------------------------------------------------------------------------
  current input line : 
     0: 
 ------------------------------------------------------------------------
 ------------------------------------------------------------------------
 There is an error in the input file
 scf: no. of closed-shell electrons is not even!                   0
 ------------------------------------------------------------------------
 ------------------------------------------------------------------------
  current input line : 
     0: 
 ------------------------------------------------------------------------
 ------------------------------------------------------------------------
 There is an error in the input file
 ------------------------------------------------------------------------
 For more information see the NWChem manual at https://nwchemgit.github.io


 For further details see manual section:                                                                                                                                                                                                                                                                
 scf: no. of closed-shell electrons is not even!                   0
 ------------------------------------------------------------------------
 ------------------------------------------------------------------------
  current input line : 
     0: 
 ------------------------------------------------------------------------
 ------------------------------------------------------------------------
 There is an error in the input file
 ------------------------------------------------------------------------
 For more information see the NWChem manual at https://nwchemgit.github.io


 For further details see manual section:                                                                                                                                                                                                                                                                
 scf: no. of closed-shell electrons is not even!                   0
 ------------------------------------------------------------------------
 ------------------------------------------------------------------------
  current input line : 
     0: 
 ------------------------------------------------------------------------
 ------------------------------------------------------------------------
 There is an error in the input file
 ------------------------------------------------------------------------
 For more information see the NWChem manual at https://nwchemgit.github.io


 For further details see manual section:                                                                                                                                                                                                                                                                
 scf: no. of closed-shell electrons is not even!                   0
 ------------------------------------------------------------------------
 ------------------------------------------------------------------------
  current input line : 
     0: 
 ------------------------------------------------------------------------
 ------------------------------------------------------------------------
 There is an error in the input file
 ------------------------------------------------------------------------
 For more information see the NWChem manual at https://nwchemgit.github.io


 For further details see manual section:                                                                                                                                                                                                                                                                
 ------------------------------------------------------------------------
  current input line : 
    43: task scf energy
 ------------------------------------------------------------------------
 ------------------------------------------------------------------------
 There is an error in the input file
 ------------------------------------------------------------------------
 For more information see the NWChem manual at https://nwchemgit.github.io


 For further details see manual section:                                                                                                                                                                                                                                                                
0:scf: no. of closed-shell electrons is not even!:Received an Error in Communication
 ------------------------------------------------------------------------
 ------------------------------------------------------------------------
 There is an error in the input file
 ------------------------------------------------------------------------
 For more information see the NWChem manual at https://nwchemgit.github.io


 For further details see manual section:                                                                                                                                                                                                                                                                
1:scf: no. of closed-shell electrons is not even!:Received an Error in Communication
 ------------------------------------------------------------------------
 For more information see the NWChem manual at https://nwchemgit.github.io


 For further details see manual section:                                                                                                                                                                                                                                                                
3:scf: no. of closed-shell electrons is not even!:Received an Error in Communication
4:scf: no. of closed-shell electrons is not even!:Received an Error in Communication
5:scf: no. of closed-shell electrons is not even!:Received an Error in Communication
6:scf: no. of closed-shell electrons is not even!:Received an Error in Communication
7:scf: no. of closed-shell electrons is not even!:Received an Error in Communication
 ------------------------------------------------------------------------
 ------------------------------------------------------------------------
  current input line : 
     0: 
 ------------------------------------------------------------------------
 ------------------------------------------------------------------------
 There is an error in the input file
 ------------------------------------------------------------------------
 For more information see the NWChem manual at https://nwchemgit.github.io


 For further details see manual section:                                                                                                                                                                                                                                                                
2:scf: no. of closed-shell electrons is not even!:Received an Error in Communication
--------------------------------------------------------------------------
MPI_ABORT was invoked on rank 0 in communicator MPI COMMUNICATOR 3 DUP FROM 0
with errorcode -1.

NOTE: invoking MPI_ABORT causes Open MPI to kill all MPI processes.
You may or may not see output from other processes, depending on
exactly when Open MPI kills them.
--------------------------------------------------------------------------
--------------------------------------------------------------------------
MPI_ABORT was invoked on rank 2 in communicator MPI COMMUNICATOR 3 DUP FROM 0
with errorcode -1.

NOTE: invoking MPI_ABORT causes Open MPI to kill all MPI processes.
You may or may not see output from other processes, depending on
exactly when Open MPI kills them.
--------------------------------------------------------------------------
--------------------------------------------------------------------------
MPI_ABORT was invoked on rank 1 in communicator MPI COMMUNICATOR 3 DUP FROM 0
with errorcode -1.

NOTE: invoking MPI_ABORT causes Open MPI to kill all MPI processes.
You may or may not see output from other processes, depending on
exactly when Open MPI kills them.
--------------------------------------------------------------------------
--------------------------------------------------------------------------
MPI_ABORT was invoked on rank 3 in communicator MPI COMMUNICATOR 3 DUP FROM 0
with errorcode -1.

NOTE: invoking MPI_ABORT causes Open MPI to kill all MPI processes.
You may or may not see output from other processes, depending on
exactly when Open MPI kills them.
--------------------------------------------------------------------------
--------------------------------------------------------------------------
MPI_ABORT was invoked on rank 4 in communicator MPI COMMUNICATOR 3 DUP FROM 0
with errorcode -1.

NOTE: invoking MPI_ABORT causes Open MPI to kill all MPI processes.
You may or may not see output from other processes, depending on
exactly when Open MPI kills them.
--------------------------------------------------------------------------
--------------------------------------------------------------------------
MPI_ABORT was invoked on rank 5 in communicator MPI COMMUNICATOR 3 DUP FROM 0
with errorcode -1.

NOTE: invoking MPI_ABORT causes Open MPI to kill all MPI processes.
You may or may not see output from other processes, depending on
exactly when Open MPI kills them.
--------------------------------------------------------------------------
--------------------------------------------------------------------------
MPI_ABORT was invoked on rank 6 in communicator MPI COMMUNICATOR 3 DUP FROM 0
with errorcode -1.

NOTE: invoking MPI_ABORT causes Open MPI to kill all MPI processes.
You may or may not see output from other processes, depending on
exactly when Open MPI kills them.
--------------------------------------------------------------------------
--------------------------------------------------------------------------
MPI_ABORT was invoked on rank 7 in communicator MPI COMMUNICATOR 3 DUP FROM 0
with errorcode -1.

NOTE: invoking MPI_ABORT causes Open MPI to kill all MPI processes.
You may or may not see output from other processes, depending on
exactly when Open MPI kills them.
--------------------------------------------------------------------------
slurmstepd: error: *** STEP 6619389.118 ON nova21-swift-3 CANCELLED AT 2025-07-11T10:01:44 ***
srun: Job step aborted: Waiting up to 32 seconds for job step to finish.
slurmstepd: error: --task-epilog failed status=9
srun: error: nova21-swift-3: tasks 0-7: Killed
