export TMOUT=5400
export TMPDIR=/tmp
export PTMPDIR=/tmp/ptmp
 argument  1 = inputs/ASP_ASN_3.nw



============================== echo of input deck ==============================
start ASP_ASN_3
geometry
H         16.54800       15.25500       13.96900
C         16.79300       16.27100       14.27100
H         17.74600       16.56700       13.83700
H         16.85500       16.32300       15.35600
C         15.70000       17.20800       13.79700
O         15.08300       17.86900       14.61800
N         15.43700       17.30800       12.49800
H         14.72900       17.98400       12.23000
C         16.21100       16.71900       11.39300
H         16.49800       15.70000       11.65100
C         15.34300       16.63400       10.11700
H         15.95700       16.21400        9.31800
H         14.53400       15.92700       10.30800
C         14.71200       17.94600        9.61200
O         14.75900       18.97500       10.33100
O         14.22500       17.94200        8.46600
C         17.51200       17.50700       11.14800
O         18.60100       16.94000       11.17800
N         17.39900       18.82800       11.01100
H         16.44600       19.18200       10.96300
C         18.49000       19.79200       10.87000
H         19.26300       19.36400       10.22800
C         17.91800       21.05000       10.18600
H         17.04900       21.41100       10.73500
H         18.67600       21.83300       10.19800
C         17.53400       20.82000        8.73300
O         18.32000       21.04800        7.82900
N         16.32900       20.38400        8.44900
H         15.67600       20.07700        9.17300
H         16.12600       20.16100        7.49400
C         19.16500       20.13900       12.21600
O         20.18300       20.82200       12.25300
N         18.61800       19.70500       13.34600
H         19.06400       19.93900       14.21600
H         17.77600       19.15400       13.30800
end

basis
 * library aug-cc-pvdz
end

echo

scf
 direct
end

task scf energy
================================================================================


                                         
                                         


             Northwest Computational Chemistry Package (NWChem) 7.2.0
             --------------------------------------------------------


                    Environmental Molecular Sciences Laboratory
                       Pacific Northwest National Laboratory
                                Richland, WA 99352

                              Copyright (c) 1994-2022
                       Pacific Northwest National Laboratory
                            Battelle Memorial Institute

             NWChem is an open-source computational chemistry package
                        distributed under the terms of the
                      Educational Community License (ECL) 2.0
             A copy of the license is included with this distribution
                              in the LICENSE.TXT file

                                  ACKNOWLEDGMENT
                                  --------------

            This software and its documentation were developed at the
            EMSL at Pacific Northwest National Laboratory, a multiprogram
            national laboratory, operated for the U.S. Department of Energy
            by Battelle under Contract Number DE-AC05-76RL01830. Support
            for this work was provided by the Department of Energy Office
            of Biological and Environmental Research, Office of Basic
            Energy Sciences, and the Office of Advanced Scientific Computing.


           Job information
           ---------------

    hostname        = nova21-swift-3
    program         = /opt/rit/el9/20230413/app/linux-rhel9-x86_64_v3/gcc-11.2.1/nwchem-7.2.0-oxtctbuhfuzyfaoziquq6bki22grib3g/bin/nwchem
    date            = Thu Jul 10 14:03:18 2025

    compiled        = Wed_May_17_23:46:39_2023
    source          = /tmp/root/spack-stage/spack-stage-nwchem-7.2.0-oxtctbuhfuzyfaoziquq6bki22grib3g/spack-src
    nwchem branch   = 7.2.0
    nwchem revision = d0d141fd
    ga revision     = 5.8.0
    use scalapack   = T
    input           = inputs/ASP_ASN_3.nw
    prefix          = ASP_ASN_3.
    data base       = ./ASP_ASN_3.db
    status          = startup
    nproc           =        8
    time left       =     -1s



           Memory information
           ------------------

    heap     =   26214396 doubles =    200.0 Mbytes
    stack    =   26214401 doubles =    200.0 Mbytes
    global   =   52428800 doubles =    400.0 Mbytes (distinct from heap & stack)
    total    =  104857597 doubles =    800.0 Mbytes
    verify   = yes
    hardfail = no 


           Directory information
           ---------------------

  0 permanent = .
  0 scratch   = .




                                NWChem Input Module
                                -------------------



 Scaling coordinates for geometry "geometry" by  1.889725989
 (inverse scale =  0.529177249)

 C1  symmetry detected

          ------
          auto-z
          ------
  no constraints, skipping    0.0000000000000000     
  no constraints, skipping    0.0000000000000000     


                             Geometry "geometry" -> ""
                             -------------------------

 Output coordinates in angstroms (scale by  1.889725989 to convert to a.u.)

  No.       Tag          Charge          X              Y              Z
 ---- ---------------- ---------- -------------- -------------- --------------
    1 H                    1.0000     0.47629800    -4.26195975    -1.24544454
    2 C                    6.0000     1.13024407    -3.75732330    -0.53750274
    3 H                    1.0000     1.65828489    -2.94579686    -1.03427102
    4 H                    1.0000     1.84955157    -4.46822473    -0.13626854
    5 C                    6.0000     0.29772091    -3.20591686     0.60273852
    6 O                    8.0000     0.52598104    -3.57891065     1.74309984
    7 N                    7.0000    -0.65743712    -2.31696539     0.34973965
    8 H                    1.0000    -1.15338922    -1.94413691     1.15291737
    9 C                    6.0000    -0.92107269    -1.64607343    -0.93377983
   10 H                    1.0000    -0.84115423    -2.36793322    -1.74607625
   11 C                    6.0000    -2.36388250    -1.09261614    -0.96223827
   12 H                    1.0000    -2.51250720    -0.58553308    -1.91752591
   13 H                    1.0000    -3.04936701    -1.94131832    -0.93720662
   14 C                    6.0000    -2.76572958    -0.12949820     0.17153982
   15 O                    8.0000    -2.00195382     0.02286643     1.15715770
   16 O                    8.0000    -3.82384188     0.51127733     0.02904037
   17 C                    6.0000     0.11981803    -0.54307293    -1.20490048
   18 O                    8.0000     0.78508010    -0.55186896    -2.23720810
   19 N                    7.0000     0.32832722     0.34085068    -0.22930734
   20 H                    1.0000    -0.30747265     0.27501470     0.56268581
   21 C                    6.0000     1.32651140     1.40987043    -0.21248102
   22 H                    1.0000     1.38890626     1.85489618    -1.20793869
   23 C                    6.0000     0.84446339     2.48519569     0.78195817
   24 H                    1.0000     0.63532901     2.03149067     1.75009946
   25 H                    1.0000     1.63690640     3.22122583     0.91645986
   26 C                    6.0000    -0.38777464     3.23567571     0.30244366
   27 O                    8.0000    -0.28826205     4.27955100    -0.31998516
   28 N                    7.0000    -1.57841342     2.75757924     0.57917468
   29 H                    1.0000    -1.71091914     1.83590788     1.00083583
   30 H                    1.0000    -2.37207949     3.22258318     0.18315888
   31 C                    6.0000     2.74304388     0.90584502     0.14409172
   32 O                    8.0000     3.71520017     1.64931365     0.06441404
   33 N                    7.0000     2.89951710    -0.34548278     0.56141638
   34 H                    1.0000     3.82507222    -0.66192661     0.79332803
   35 H                    1.0000     2.09490202    -0.94650753     0.63471599

      Atomic Mass 
      ----------- 

      H                  1.007825
      C                 12.000000
      O                 15.994910
      N                 14.003070


 Effective nuclear repulsion energy (a.u.)    1711.2755621013

            Nuclear Dipole moment (a.u.) 
            ----------------------------
        X                 Y               Z
 ---------------- ---------------- ----------------
     0.0000000000     0.0000000000    -0.0000000000



                                Z-matrix (autoz)
                                -------- 

 Units are Angstrom for bonds and degrees for angles

      Type          Name      I     J     K     L     M      Value
      ----------- --------  ----- ----- ----- ----- ----- ----------
    1 Stretch                  1     2                       1.08788
    2 Stretch                  2     3                       1.08820
    3 Stretch                  2     4                       1.08801
    4 Stretch                  2     5                       1.51568
    5 Stretch                  5     6                       1.22133
    6 Stretch                  5     7                       1.32912
    7 Stretch                  7     8                       1.01492
    8 Stretch                  7     9                       1.47208
    9 Stretch                  9    10                       1.08963
   10 Stretch                  9    11                       1.54558
   11 Stretch                  9    17                       1.54064
   12 Stretch                 11    12                       1.09169
   13 Stretch                 11    13                       1.09124
   14 Stretch                 11    14                       1.54095
   15 Stretch                 14    15                       1.25619
   16 Stretch                 14    16                       1.24519
   17 Stretch                 17    18                       1.22813
   18 Stretch                 17    19                       1.33288
   19 Stretch                 19    20                       1.01776
   20 Stretch                 19    21                       1.46269
   21 Stretch                 21    22                       1.09219
   22 Stretch                 21    23                       1.54195
   23 Stretch                 21    31                       1.54523
   24 Stretch                 23    24                       1.08944
   25 Stretch                 23    25                       1.08986
   26 Stretch                 23    26                       1.52038
   27 Stretch                 26    27                       1.21942
   28 Stretch                 26    28                       1.31255
   29 Stretch                 28    29                       1.02217
   30 Stretch                 28    30                       1.00148
   31 Stretch                 31    32                       1.22645
   32 Stretch                 31    33                       1.32833
   33 Stretch                 33    34                       1.00527
   34 Stretch                 33    35                       1.00698
   35 Bend                     1     2     3               109.91032
   36 Bend                     1     2     4               109.53022
   37 Bend                     1     2     5               109.15573
   38 Bend                     2     5     6               119.25256
   39 Bend                     2     5     7               119.65969
   40 Bend                     3     2     4               109.56122
   41 Bend                     3     2     5               109.79475
   42 Bend                     4     2     5               108.86935
   43 Bend                     5     7     8               116.50167
   44 Bend                     5     7     9               126.83280
   45 Bend                     6     5     7               121.08429
   46 Bend                     7     9    10               109.56841
   47 Bend                     7     9    11               110.26932
   48 Bend                     7     9    17               111.02186
   49 Bend                     8     7     9               115.78982
   50 Bend                     9    11    12               108.03094
   51 Bend                     9    11    13               107.90720
   52 Bend                     9    11    14               116.98148
   53 Bend                     9    17    18               120.58173
   54 Bend                     9    17    19               116.85084
   55 Bend                    10     9    11               106.97588
   56 Bend                    10     9    17               107.07077
   57 Bend                    11     9    17               111.78270
   58 Bend                    11    14    15               119.63950
   59 Bend                    11    14    16               117.32460
   60 Bend                    12    11    13               107.20588
   61 Bend                    12    11    14               108.54289
   62 Bend                    13    11    14               107.78273
   63 Bend                    15    14    16               122.95883
   64 Bend                    17    19    20               115.40123
   65 Bend                    17    19    21               126.85967
   66 Bend                    18    17    19               122.36054
   67 Bend                    19    21    22               109.04428
   68 Bend                    19    21    23               107.68376
   69 Bend                    19    21    31               112.94542
   70 Bend                    20    19    21               117.68725
   71 Bend                    21    23    24               110.04150
   72 Bend                    21    23    25               108.85978
   73 Bend                    21    23    26               113.21653
   74 Bend                    21    31    32               120.92512
   75 Bend                    21    31    33               119.19309
   76 Bend                    22    21    23               108.75417
   77 Bend                    22    21    31               106.90916
   78 Bend                    23    21    31               111.42212
   79 Bend                    23    26    27               121.15773
   80 Bend                    23    26    28               119.26885
   81 Bend                    24    23    25               108.12907
   82 Bend                    24    23    26               109.28451
   83 Bend                    25    23    26               107.14962
   84 Bend                    26    28    29               122.20854
   85 Bend                    26    28    30               117.80014
   86 Bend                    27    26    28               119.56802
   87 Bend                    29    28    30               118.62363
   88 Bend                    31    33    34               118.52028
   89 Bend                    31    33    35               119.40656
   90 Bend                    32    31    33               119.87383
   91 Bend                    34    33    35               122.07308
   92 Torsion                  1     2     5     6         120.47154
   93 Torsion                  1     2     5     7         -60.19692
   94 Torsion                  2     5     7     8        -176.96889
   95 Torsion                  2     5     7     9          -8.19716
   96 Torsion                  3     2     5     6        -118.98611
   97 Torsion                  3     2     5     7          60.34543
   98 Torsion                  4     2     5     6           0.95184
   99 Torsion                  4     2     5     7        -179.71661
  100 Torsion                  5     7     9    10          42.65145
  101 Torsion                  5     7     9    11         160.14152
  102 Torsion                  5     7     9    17         -75.40661
  103 Torsion                  6     5     7     8           2.35011
  104 Torsion                  6     5     7     9         171.12184
  105 Torsion                  7     9    11    12         178.77916
  106 Torsion                  7     9    11    13         -65.61961
  107 Torsion                  7     9    11    14          56.02645
  108 Torsion                  7     9    17    18         124.06285
  109 Torsion                  7     9    17    19         -50.83234
  110 Torsion                  8     7     9    10        -148.50768
  111 Torsion                  8     7     9    11         -31.01760
  112 Torsion                  8     7     9    17          93.43427
  113 Torsion                  9    11    14    15          -9.92018
  114 Torsion                  9    11    14    16         166.98217
  115 Torsion                  9    17    19    20          -7.48521
  116 Torsion                  9    17    19    21         175.21261
  117 Torsion                 10     9    11    12         -62.13988
  118 Torsion                 10     9    11    13          53.46136
  119 Torsion                 10     9    11    14         175.10741
  120 Torsion                 10     9    17    18           4.50103
  121 Torsion                 10     9    17    19        -170.39417
  122 Torsion                 11     9    17    18        -112.34706
  123 Torsion                 11     9    17    19          72.75775
  124 Torsion                 12    11     9    17          54.76554
  125 Torsion                 12    11    14    15        -132.40855
  126 Torsion                 12    11    14    16          44.49379
  127 Torsion                 13    11     9    17         170.36677
  128 Torsion                 13    11    14    15         111.79081
  129 Torsion                 13    11    14    16         -71.30685
  130 Torsion                 14    11     9    17         -67.98717
  131 Torsion                 17    19    21    22          39.48738
  132 Torsion                 17    19    21    23         157.33039
  133 Torsion                 17    19    21    31         -79.21578
  134 Torsion                 18    17    19    20         177.71781
  135 Torsion                 18    17    19    21           0.41563
  136 Torsion                 19    21    23    24          53.75024
  137 Torsion                 19    21    23    25         172.08461
  138 Torsion                 19    21    23    26         -68.86517
  139 Torsion                 19    21    31    32         172.31965
  140 Torsion                 19    21    31    33          -8.70749
  141 Torsion                 20    19    21    22        -137.76043
  142 Torsion                 20    19    21    23         -19.91742
  143 Torsion                 20    19    21    31         103.53641
  144 Torsion                 21    23    26    27         -92.79323
  145 Torsion                 21    23    26    28          88.05616
  146 Torsion                 21    31    33    34        -179.81598
  147 Torsion                 21    31    33    35           0.28622
  148 Torsion                 22    21    23    24         171.78055
  149 Torsion                 22    21    23    25         -69.88509
  150 Torsion                 22    21    23    26          49.16513
  151 Torsion                 22    21    31    32          52.38288
  152 Torsion                 22    21    31    33        -128.64426
  153 Torsion                 23    21    31    32         -66.31853
  154 Torsion                 23    21    31    33         112.65433
  155 Torsion                 23    26    28    29          -8.11201
  156 Torsion                 23    26    28    30        -174.56781
  157 Torsion                 24    23    21    31         -70.62743
  158 Torsion                 24    23    26    27         144.17203
  159 Torsion                 24    23    26    28         -34.97858
  160 Torsion                 25    23    21    31          47.70693
  161 Torsion                 25    23    26    27          27.23783
  162 Torsion                 25    23    26    28        -151.91278
  163 Torsion                 26    23    21    31         166.75715
  164 Torsion                 27    26    28    29         172.72369
  165 Torsion                 27    26    28    30           6.26788
  166 Torsion                 32    31    33    34          -0.83212
  167 Torsion                 32    31    33    35         179.27008


            XYZ format geometry
            -------------------
    35
 geometry
 H                     0.47629800    -4.26195975    -1.24544454
 C                     1.13024407    -3.75732330    -0.53750274
 H                     1.65828489    -2.94579686    -1.03427102
 H                     1.84955157    -4.46822473    -0.13626854
 C                     0.29772091    -3.20591686     0.60273852
 O                     0.52598104    -3.57891065     1.74309984
 N                    -0.65743712    -2.31696539     0.34973965
 H                    -1.15338922    -1.94413691     1.15291737
 C                    -0.92107269    -1.64607343    -0.93377983
 H                    -0.84115423    -2.36793322    -1.74607625
 C                    -2.36388250    -1.09261614    -0.96223827
 H                    -2.51250720    -0.58553308    -1.91752591
 H                    -3.04936701    -1.94131832    -0.93720662
 C                    -2.76572958    -0.12949820     0.17153982
 O                    -2.00195382     0.02286643     1.15715770
 O                    -3.82384188     0.51127733     0.02904037
 C                     0.11981803    -0.54307293    -1.20490048
 O                     0.78508010    -0.55186896    -2.23720810
 N                     0.32832722     0.34085068    -0.22930734
 H                    -0.30747265     0.27501470     0.56268581
 C                     1.32651140     1.40987043    -0.21248102
 H                     1.38890626     1.85489618    -1.20793869
 C                     0.84446339     2.48519569     0.78195817
 H                     0.63532901     2.03149067     1.75009946
 H                     1.63690640     3.22122583     0.91645986
 C                    -0.38777464     3.23567571     0.30244366
 O                    -0.28826205     4.27955100    -0.31998516
 N                    -1.57841342     2.75757924     0.57917468
 H                    -1.71091914     1.83590788     1.00083583
 H                    -2.37207949     3.22258318     0.18315888
 C                     2.74304388     0.90584502     0.14409172
 O                     3.71520017     1.64931365     0.06441404
 N                     2.89951710    -0.34548278     0.56141638
 H                     3.82507222    -0.66192661     0.79332803
 H                     2.09490202    -0.94650753     0.63471599

 ==============================================================================
                                internuclear distances
 ------------------------------------------------------------------------------
       center one      |      center two      | atomic units |  angstroms
 ------------------------------------------------------------------------------
    2 C                |   1 H                |     2.05580  |     1.08788
    3 H                |   2 C                |     2.05640  |     1.08820
    4 H                |   2 C                |     2.05605  |     1.08801
    5 C                |   2 C                |     2.86422  |     1.51568
    6 O                |   5 C                |     2.30798  |     1.22133
    7 N                |   5 C                |     2.51168  |     1.32912
    8 H                |   7 N                |     1.91792  |     1.01492
    9 C                |   7 N                |     2.78183  |     1.47208
   10 H                |   9 C                |     2.05910  |     1.08963
   11 C                |   9 C                |     2.92073  |     1.54558
   12 H                |  11 C                |     2.06300  |     1.09169
   13 H                |  11 C                |     2.06215  |     1.09124
   14 C                |  11 C                |     2.91198  |     1.54095
   15 O                |  14 C                |     2.37385  |     1.25619
   16 O                |  14 C                |     2.35307  |     1.24519
   17 C                |   9 C                |     2.91139  |     1.54064
   18 O                |  17 C                |     2.32083  |     1.22813
   19 N                |  17 C                |     2.51878  |     1.33288
   20 H                |  19 N                |     1.92328  |     1.01776
   21 C                |  19 N                |     2.76408  |     1.46269
   22 H                |  21 C                |     2.06394  |     1.09219
   23 C                |  21 C                |     2.91386  |     1.54195
   24 H                |  23 C                |     2.05875  |     1.08944
   25 H                |  23 C                |     2.05954  |     1.08986
   26 C                |  23 C                |     2.87311  |     1.52038
   27 O                |  26 C                |     2.30438  |     1.21942
   28 N                |  26 C                |     2.48035  |     1.31255
   29 H                |  28 N                |     1.93162  |     1.02217
   30 H                |  28 N                |     1.89252  |     1.00148
   31 C                |  21 C                |     2.92007  |     1.54523
   32 O                |  31 C                |     2.31766  |     1.22645
   33 N                |  31 C                |     2.51018  |     1.32833
   34 H                |  33 N                |     1.89969  |     1.00527
   35 H                |  33 N                |     1.90292  |     1.00698
 ------------------------------------------------------------------------------
                         number of included internuclear distances:         34
 ==============================================================================



 ==============================================================================
                                 internuclear angles
 ------------------------------------------------------------------------------
        center 1       |       center 2       |       center 3       |  degrees
 ------------------------------------------------------------------------------
    1 H                |   2 C                |   3 H                |   109.91
    1 H                |   2 C                |   4 H                |   109.53
    1 H                |   2 C                |   5 C                |   109.16
    3 H                |   2 C                |   4 H                |   109.56
    3 H                |   2 C                |   5 C                |   109.79
    4 H                |   2 C                |   5 C                |   108.87
    2 C                |   5 C                |   6 O                |   119.25
    2 C                |   5 C                |   7 N                |   119.66
    6 O                |   5 C                |   7 N                |   121.08
    5 C                |   7 N                |   8 H                |   116.50
    5 C                |   7 N                |   9 C                |   126.83
    8 H                |   7 N                |   9 C                |   115.79
    7 N                |   9 C                |  10 H                |   109.57
    7 N                |   9 C                |  11 C                |   110.27
    7 N                |   9 C                |  17 C                |   111.02
   10 H                |   9 C                |  11 C                |   106.98
   10 H                |   9 C                |  17 C                |   107.07
   11 C                |   9 C                |  17 C                |   111.78
    9 C                |  11 C                |  12 H                |   108.03
    9 C                |  11 C                |  13 H                |   107.91
    9 C                |  11 C                |  14 C                |   116.98
   12 H                |  11 C                |  13 H                |   107.21
   12 H                |  11 C                |  14 C                |   108.54
   13 H                |  11 C                |  14 C                |   107.78
   11 C                |  14 C                |  15 O                |   119.64
   11 C                |  14 C                |  16 O                |   117.32
   15 O                |  14 C                |  16 O                |   122.96
    9 C                |  17 C                |  18 O                |   120.58
    9 C                |  17 C                |  19 N                |   116.85
   18 O                |  17 C                |  19 N                |   122.36
   17 C                |  19 N                |  20 H                |   115.40
   17 C                |  19 N                |  21 C                |   126.86
   20 H                |  19 N                |  21 C                |   117.69
   19 N                |  21 C                |  22 H                |   109.04
   19 N                |  21 C                |  23 C                |   107.68
   19 N                |  21 C                |  31 C                |   112.95
   22 H                |  21 C                |  23 C                |   108.75
   22 H                |  21 C                |  31 C                |   106.91
   23 C                |  21 C                |  31 C                |   111.42
   21 C                |  23 C                |  24 H                |   110.04
   21 C                |  23 C                |  25 H                |   108.86
   21 C                |  23 C                |  26 C                |   113.22
   24 H                |  23 C                |  25 H                |   108.13
   24 H                |  23 C                |  26 C                |   109.28
   25 H                |  23 C                |  26 C                |   107.15
   23 C                |  26 C                |  27 O                |   121.16
   23 C                |  26 C                |  28 N                |   119.27
   27 O                |  26 C                |  28 N                |   119.57
   26 C                |  28 N                |  29 H                |   122.21
   26 C                |  28 N                |  30 H                |   117.80
   29 H                |  28 N                |  30 H                |   118.62
   21 C                |  31 C                |  32 O                |   120.93
   21 C                |  31 C                |  33 N                |   119.19
   32 O                |  31 C                |  33 N                |   119.87
   31 C                |  33 N                |  34 H                |   118.52
   31 C                |  33 N                |  35 H                |   119.41
   34 H                |  33 N                |  35 H                |   122.07
 ------------------------------------------------------------------------------
                            number of included internuclear angles:         57
 ==============================================================================



  library name resolved from: environment
  library file name is: </opt/rit/el9/20230413/app/linux-rhel9-x86_64_v3/gcc-11.2.1/nwchem-7.2.0-oxtctbuhfuzyfaoziquq6bki22grib3g/share/nwchem/libraries/>
  


 Summary of "ao basis" -> "" (cartesian)
 ------------------------------------------------------------------------------
       Tag                 Description            Shells   Functions and Types
 ---------------- ------------------------------  ------  ---------------------
 *                        aug-cc-pvdz                 on all atoms 


                      Basis "ao basis" -> "ao basis" (cartesian)
                      -----
  H (Hydrogen)
  ------------
            Exponent  Coefficients 
       -------------- ---------------------------------------------------------
  1 S  1.30100000E+01  0.019685
  1 S  1.96200000E+00  0.137977
  1 S  4.44600000E-01  0.478148

  2 S  1.22000000E-01  1.000000

  3 S  2.97400000E-02  1.000000

  4 P  7.27000000E-01  1.000000

  5 P  1.41000000E-01  1.000000

  C (Carbon)
  ----------
            Exponent  Coefficients 
       -------------- ---------------------------------------------------------
  1 S  6.66500000E+03  0.000692
  1 S  1.00000000E+03  0.005329
  1 S  2.28000000E+02  0.027077
  1 S  6.47100000E+01  0.101718
  1 S  2.10600000E+01  0.274740
  1 S  7.49500000E+00  0.448564
  1 S  2.79700000E+00  0.285074
  1 S  5.21500000E-01  0.015204

  2 S  6.66500000E+03 -0.000146
  2 S  1.00000000E+03 -0.001154
  2 S  2.28000000E+02 -0.005725
  2 S  6.47100000E+01 -0.023312
  2 S  2.10600000E+01 -0.063955
  2 S  7.49500000E+00 -0.149981
  2 S  2.79700000E+00 -0.127262
  2 S  5.21500000E-01  0.544529

  3 S  1.59600000E-01  1.000000

  4 S  4.69000000E-02  1.000000

  5 P  9.43900000E+00  0.038109
  5 P  2.00200000E+00  0.209480
  5 P  5.45600000E-01  0.508557

  6 P  1.51700000E-01  1.000000

  7 P  4.04100000E-02  1.000000

  8 D  5.50000000E-01  1.000000

  9 D  1.51000000E-01  1.000000

  O (Oxygen)
  ----------
            Exponent  Coefficients 
       -------------- ---------------------------------------------------------
  1 S  1.17200000E+04  0.000710
  1 S  1.75900000E+03  0.005470
  1 S  4.00800000E+02  0.027837
  1 S  1.13700000E+02  0.104800
  1 S  3.70300000E+01  0.283062
  1 S  1.32700000E+01  0.448719
  1 S  5.02500000E+00  0.270952
  1 S  1.01300000E+00  0.015458

  2 S  1.17200000E+04 -0.000160
  2 S  1.75900000E+03 -0.001263
  2 S  4.00800000E+02 -0.006267
  2 S  1.13700000E+02 -0.025716
  2 S  3.70300000E+01 -0.070924
  2 S  1.32700000E+01 -0.165411
  2 S  5.02500000E+00 -0.116955
  2 S  1.01300000E+00  0.557368

  3 S  3.02300000E-01  1.000000

  4 S  7.89600000E-02  1.000000

  5 P  1.77000000E+01  0.043018
  5 P  3.85400000E+00  0.228913
  5 P  1.04600000E+00  0.508728

  6 P  2.75300000E-01  1.000000

  7 P  6.85600000E-02  1.000000

  8 D  1.18500000E+00  1.000000

  9 D  3.32000000E-01  1.000000

  N (Nitrogen)
  ------------
            Exponent  Coefficients 
       -------------- ---------------------------------------------------------
  1 S  9.04600000E+03  0.000700
  1 S  1.35700000E+03  0.005389
  1 S  3.09300000E+02  0.027406
  1 S  8.77300000E+01  0.103207
  1 S  2.85600000E+01  0.278723
  1 S  1.02100000E+01  0.448540
  1 S  3.83800000E+00  0.278238
  1 S  7.46600000E-01  0.015440

  2 S  9.04600000E+03 -0.000153
  2 S  1.35700000E+03 -0.001208
  2 S  3.09300000E+02 -0.005992
  2 S  8.77300000E+01 -0.024544
  2 S  2.85600000E+01 -0.067459
  2 S  1.02100000E+01 -0.158078
  2 S  3.83800000E+00 -0.121831
  2 S  7.46600000E-01  0.549003

  3 S  2.24800000E-01  1.000000

  4 S  6.12400000E-02  1.000000

  5 P  1.35500000E+01  0.039919
  5 P  2.91700000E+00  0.217169
  5 P  7.97300000E-01  0.510319

  6 P  2.18500000E-01  1.000000

  7 P  5.61100000E-02  1.000000

  8 D  8.17000000E-01  1.000000

  9 D  2.30000000E-01  1.000000



 Summary of "ao basis" -> "ao basis" (cartesian)
 ------------------------------------------------------------------------------
       Tag                 Description            Shells   Functions and Types
 ---------------- ------------------------------  ------  ---------------------
 H                        aug-cc-pvdz                5        9   3s2p
 C                        aug-cc-pvdz                9       25   4s3p2d
 O                        aug-cc-pvdz                9       25   4s3p2d
 N                        aug-cc-pvdz                9       25   4s3p2d


 ------------------------------------------------------------------------
 scf: no. of closed-shell electrons is not even!                   0
 ------------------------------------------------------------------------
 scf: no. of closed-shell electrons is not even!                   0
 ------------------------------------------------------------------------
 ------------------------------------------------------------------------
  current input line : 
     0: 
 scf: no. of closed-shell electrons is not even!                   0
 scf: no. of closed-shell electrons is not even!                   0
 ------------------------------------------------------------------------
 ------------------------------------------------------------------------
  current input line : 
     0: 
 ------------------------------------------------------------------------
 ------------------------------------------------------------------------
 There is an error in the input file
 scf: no. of closed-shell electrons is not even!                   0
 ------------------------------------------------------------------------
 ------------------------------------------------------------------------
  current input line : 
     0: 
 ------------------------------------------------------------------------
 ------------------------------------------------------------------------
 There is an error in the input file
 ------------------------------------------------------------------------
 For more information see the NWChem manual at https://nwchemgit.github.io


 For further details see manual section:                                                                                                                                                                                                                                                                
 scf: no. of closed-shell electrons is not even!                   0
 ------------------------------------------------------------------------
 ------------------------------------------------------------------------
  current input line : 
     0: 
 ------------------------------------------------------------------------
 ------------------------------------------------------------------------
 There is an error in the input file
 ------------------------------------------------------------------------
 For more information see the NWChem manual at https://nwchemgit.github.io


 For further details see manual section:                                                                                                                                                                                                                                                                
 scf: no. of closed-shell electrons is not even!                   0
 ------------------------------------------------------------------------
 ------------------------------------------------------------------------
  current input line : 
     0: 
 ------------------------------------------------------------------------
 ------------------------------------------------------------------------
 There is an error in the input file
 ------------------------------------------------------------------------
 For more information see the NWChem manual at https://nwchemgit.github.io


 For further details see manual section:                                                                                                                                                                                                                                                                
 scf: no. of closed-shell electrons is not even!                   0
 ------------------------------------------------------------------------
 ------------------------------------------------------------------------
  current input line : 
     0: 
 ------------------------------------------------------------------------
 ------------------------------------------------------------------------
 There is an error in the input file
 ------------------------------------------------------------------------
 For more information see the NWChem manual at https://nwchemgit.github.io


 For further details see manual section:                                                                                                                                                                                                                                                                
 ------------------------------------------------------------------------
  current input line : 
    50: task scf energy
 ------------------------------------------------------------------------
 ------------------------------------------------------------------------
 There is an error in the input file
 ------------------------------------------------------------------------
 For more information see the NWChem manual at https://nwchemgit.github.io


 For further details see manual section:                                                                                                                                                                                                                                                                
0:scf: no. of closed-shell electrons is not even!:Received an Error in Communication
 ------------------------------------------------------------------------
 ------------------------------------------------------------------------
 There is an error in the input file
 ------------------------------------------------------------------------
 For more information see the NWChem manual at https://nwchemgit.github.io


 For further details see manual section:                                                                                                                                                                                                                                                                
1:scf: no. of closed-shell electrons is not even!:Received an Error in Communication
 ------------------------------------------------------------------------
 For more information see the NWChem manual at https://nwchemgit.github.io


 For further details see manual section:                                                                                                                                                                                                                                                                
3:scf: no. of closed-shell electrons is not even!:Received an Error in Communication
4:scf: no. of closed-shell electrons is not even!:Received an Error in Communication
5:scf: no. of closed-shell electrons is not even!:Received an Error in Communication
6:scf: no. of closed-shell electrons is not even!:Received an Error in Communication
7:scf: no. of closed-shell electrons is not even!:Received an Error in Communication
 ------------------------------------------------------------------------
 ------------------------------------------------------------------------
  current input line : 
     0: 
 ------------------------------------------------------------------------
 ------------------------------------------------------------------------
 There is an error in the input file
 ------------------------------------------------------------------------
 For more information see the NWChem manual at https://nwchemgit.github.io


 For further details see manual section:                                                                                                                                                                                                                                                                
2:scf: no. of closed-shell electrons is not even!:Received an Error in Communication
--------------------------------------------------------------------------
MPI_ABORT was invoked on rank 5 in communicator MPI COMMUNICATOR 3 DUP FROM 0
with errorcode -1.

NOTE: invoking MPI_ABORT causes Open MPI to kill all MPI processes.
You may or may not see output from other processes, depending on
exactly when Open MPI kills them.
--------------------------------------------------------------------------
--------------------------------------------------------------------------
MPI_ABORT was invoked on rank 6 in communicator MPI COMMUNICATOR 3 DUP FROM 0
with errorcode -1.

NOTE: invoking MPI_ABORT causes Open MPI to kill all MPI processes.
You may or may not see output from other processes, depending on
exactly when Open MPI kills them.
--------------------------------------------------------------------------
--------------------------------------------------------------------------
MPI_ABORT was invoked on rank 7 in communicator MPI COMMUNICATOR 3 DUP FROM 0
with errorcode -1.

NOTE: invoking MPI_ABORT causes Open MPI to kill all MPI processes.
You may or may not see output from other processes, depending on
exactly when Open MPI kills them.
--------------------------------------------------------------------------
--------------------------------------------------------------------------
MPI_ABORT was invoked on rank 1 in communicator MPI COMMUNICATOR 3 DUP FROM 0
with errorcode -1.

NOTE: invoking MPI_ABORT causes Open MPI to kill all MPI processes.
You may or may not see output from other processes, depending on
exactly when Open MPI kills them.
--------------------------------------------------------------------------
--------------------------------------------------------------------------
MPI_ABORT was invoked on rank 2 in communicator MPI COMMUNICATOR 3 DUP FROM 0
with errorcode -1.

NOTE: invoking MPI_ABORT causes Open MPI to kill all MPI processes.
You may or may not see output from other processes, depending on
exactly when Open MPI kills them.
--------------------------------------------------------------------------
--------------------------------------------------------------------------
MPI_ABORT was invoked on rank 0 in communicator MPI COMMUNICATOR 3 DUP FROM 0
with errorcode -1.

NOTE: invoking MPI_ABORT causes Open MPI to kill all MPI processes.
You may or may not see output from other processes, depending on
exactly when Open MPI kills them.
--------------------------------------------------------------------------
--------------------------------------------------------------------------
MPI_ABORT was invoked on rank 3 in communicator MPI COMMUNICATOR 3 DUP FROM 0
with errorcode -1.

NOTE: invoking MPI_ABORT causes Open MPI to kill all MPI processes.
You may or may not see output from other processes, depending on
exactly when Open MPI kills them.
--------------------------------------------------------------------------
--------------------------------------------------------------------------
MPI_ABORT was invoked on rank 4 in communicator MPI COMMUNICATOR 3 DUP FROM 0
with errorcode -1.

NOTE: invoking MPI_ABORT causes Open MPI to kill all MPI processes.
You may or may not see output from other processes, depending on
exactly when Open MPI kills them.
--------------------------------------------------------------------------
slurmstepd: error: *** STEP 6619389.88 ON nova21-swift-3 CANCELLED AT 2025-07-10T14:03:18 ***
srun: Job step aborted: Waiting up to 32 seconds for job step to finish.
slurmstepd: error: --task-epilog failed status=9
srun: error: nova21-swift-3: tasks 0-7: Killed
