export TMOUT=5400
export TMPDIR=/tmp
export PTMPDIR=/tmp/ptmp
 argument  1 = inputs/ASP_GLN_5.nw



============================== echo of input deck ==============================
start ASP_GLN_5
geometry
H          1.31200       -2.35000        3.86100
C          2.12600       -1.70200        3.54300
H          2.69900       -1.36700        4.40600
H          1.72700       -0.83700        3.01600
C          3.03800       -2.46300        2.61300
O          2.81500       -3.64300        2.36600
N          4.07200       -1.78600        2.13500
H          4.20000       -0.82200        2.44300
C          5.10000       -2.27700        1.20200
H          4.61900       -2.71700        0.32800
C          5.93400       -1.06400        0.75500
H          6.77800       -1.39800        0.14900
H          5.31100       -0.41800        0.13200
C          6.43200       -0.26200        1.96200
O          7.57600       -0.51500        2.39100
O          5.61200        0.50900        2.51300
C          6.04600       -3.34300        1.79400
O          6.61300       -4.13600        1.04500
N          6.19200       -3.38500        3.12400
H          5.72400       -2.65800        3.64300
C          7.10700       -4.27000        3.86900
H          6.97700       -4.01400        4.92000
C          6.71300       -5.76000        3.73300
H          7.08800       -6.13700        2.78100
H          7.21100       -6.32000        4.52500
C          5.20600       -6.06500        3.79700
H          4.72300       -5.66800        2.90500
H          5.06600       -7.14500        3.78700
C          4.52300       -5.50600        5.04000
O          4.94900       -5.69000        6.16800
N          3.41800       -4.81300        4.89200
H          3.00000       -4.45400        5.72700
H          3.08900       -4.59000        3.95600
C          8.61200       -4.03900        3.58900
O          9.44700       -4.88200        3.90800
N          9.01100       -2.90800        3.02300
H          9.98900       -2.77700        2.84300
H          8.34400       -2.17700        2.78500
end

basis
 * library aug-cc-pvdz
end

echo

scf
 direct
end

task scf energy
================================================================================


                                         
                                         


             Northwest Computational Chemistry Package (NWChem) 7.2.0
             --------------------------------------------------------


                    Environmental Molecular Sciences Laboratory
                       Pacific Northwest National Laboratory
                                Richland, WA 99352

                              Copyright (c) 1994-2022
                       Pacific Northwest National Laboratory
                            Battelle Memorial Institute

             NWChem is an open-source computational chemistry package
                        distributed under the terms of the
                      Educational Community License (ECL) 2.0
             A copy of the license is included with this distribution
                              in the LICENSE.TXT file

                                  ACKNOWLEDGMENT
                                  --------------

            This software and its documentation were developed at the
            EMSL at Pacific Northwest National Laboratory, a multiprogram
            national laboratory, operated for the U.S. Department of Energy
            by Battelle under Contract Number DE-AC05-76RL01830. Support
            for this work was provided by the Department of Energy Office
            of Biological and Environmental Research, Office of Basic
            Energy Sciences, and the Office of Advanced Scientific Computing.


           Job information
           ---------------

    hostname        = nova21-speedy-12
    program         = /opt/rit/el9/20230413/app/linux-rhel9-x86_64_v3/gcc-11.2.1/nwchem-7.2.0-oxtctbuhfuzyfaoziquq6bki22grib3g/bin/nwchem
    date            = Fri Jul 11 03:00:06 2025

    compiled        = Wed_May_17_23:46:39_2023
    source          = /tmp/root/spack-stage/spack-stage-nwchem-7.2.0-oxtctbuhfuzyfaoziquq6bki22grib3g/spack-src
    nwchem branch   = 7.2.0
    nwchem revision = d0d141fd
    ga revision     = 5.8.0
    use scalapack   = T
    input           = inputs/ASP_GLN_5.nw
    prefix          = ASP_GLN_5.
    data base       = ./ASP_GLN_5.db
    status          = startup
    nproc           =        8
    time left       =     -1s



           Memory information
           ------------------

    heap     =   26214398 doubles =    200.0 Mbytes
    stack    =   26214395 doubles =    200.0 Mbytes
    global   =   52428800 doubles =    400.0 Mbytes (distinct from heap & stack)
    total    =  104857593 doubles =    800.0 Mbytes
    verify   = yes
    hardfail = no 


           Directory information
           ---------------------

  0 permanent = .
  0 scratch   = .




                                NWChem Input Module
                                -------------------



 Scaling coordinates for geometry "geometry" by  1.889725989
 (inverse scale =  0.529177249)

 C1  symmetry detected

          ------
          auto-z
          ------
  no constraints, skipping    0.0000000000000000     
  no constraints, skipping    0.0000000000000000     


                             Geometry "geometry" -> ""
                             -------------------------

 Output coordinates in angstroms (scale by  1.889725989 to convert to a.u.)

  No.       Tag          Charge          X              Y              Z
 ---- ---------------- ---------- -------------- -------------- --------------
    1 H                    1.0000    -4.39684363     0.94341531     0.75376522
    2 C                    6.0000    -3.50084910     1.54642058     0.88492330
    3 H                    1.0000    -3.03837377     1.32854376     1.84615650
    4 H                    1.0000    -3.75541289     2.60382675     0.83754747
    5 C                    6.0000    -2.51879132     1.23037260    -0.21573159
    6 O                    8.0000    -2.78668858     0.37056658    -1.04765868
    7 N                    7.0000    -1.38018409     1.90765334    -0.18686344
    8 H                    1.0000    -1.23037579     2.56481036     0.57880367
    9 C                    6.0000    -0.26398491     1.80900317    -1.14222805
   10 H                    1.0000    -0.64156802     1.92974901    -2.15794870
   11 C                    6.0000     0.71098205     2.95796778    -0.83230263
   12 H                    1.0000     1.60882781     2.85701391    -1.44451934
   13 H                    1.0000     0.23390122     3.90543936    -1.09357928
   14 C                    6.0000     1.08225520     2.98054777     0.65420448
   15 O                    8.0000     2.12986487     2.39564232     0.99652831
   16 O                    8.0000     0.24733210     3.48043557     1.44379779
   17 C                    6.0000     0.50635948     0.47267699    -1.09185087
   18 O                    8.0000     1.11918372     0.08634681    -2.08509526
   19 N                    7.0000     0.45209633    -0.24203905     0.03873150
   20 H                    1.0000    -0.03398813     0.18816059     0.81045954
   21 C                    6.0000     1.18229812    -1.49465204     0.30936234
   22 H                    1.0000     0.91796265    -1.77800180     1.32763375
   23 C                    6.0000     0.70728475    -2.65221026    -0.60072186
   24 H                    1.0000     1.19016530    -2.55498322    -1.57356886
   25 H                    1.0000     1.04235884    -3.59264314    -0.16233920
   26 C                    6.0000    -0.81064945    -2.74101085    -0.83770335
   27 H                    1.0000    -1.12786547    -1.89293023    -1.44325703
   28 H                    1.0000    -1.02433112    -3.64369075    -1.40832506
   29 C                    6.0000    -1.62715025    -2.78442327     0.44894377
   30 O                    8.0000    -1.38563415    -3.55892160     1.35973370
   31 N                    7.0000    -2.64616572    -1.96649484     0.57455654
   32 H                    1.0000    -3.15557190    -2.01536835     1.43417664
   33 H                    1.0000    -2.81739654    -1.26681689    -0.14321555
   34 C                    6.0000     2.72470063    -1.36206934     0.32358739
   35 O                    8.0000     3.44152881    -2.35675238     0.24359979
   36 N                    7.0000     3.28212998    -0.16545358     0.45047805
   37 H                    1.0000     4.28278544    -0.09666236     0.45167293
   38 H                    1.0000     2.71116507     0.67019933     0.55807587

      Atomic Mass 
      ----------- 

      H                  1.007825
      C                 12.000000
      O                 15.994910
      N                 14.003070


 Effective nuclear repulsion energy (a.u.)    1874.2376222439

            Nuclear Dipole moment (a.u.) 
            ----------------------------
        X                 Y               Z
 ---------------- ---------------- ----------------
     0.0000000000     0.0000000000    -0.0000000000



                                Z-matrix (autoz)
                                -------- 

 Units are Angstrom for bonds and degrees for angles

      Type          Name      I     J     K     L     M      Value
      ----------- --------  ----- ----- ----- ----- ----- ----------
    1 Stretch                  1     2                       1.08794
    2 Stretch                  2     3                       1.08873
    3 Stretch                  2     4                       1.08865
    4 Stretch                  2     5                       1.50856
    5 Stretch                  5     6                       1.22603
    6 Stretch                  5     7                       1.32513
    7 Stretch                  7     8                       1.02007
    8 Stretch                  7     9                       1.47253
    9 Stretch                  9    10                       1.09034
   10 Stretch                  9    11                       1.53842
   11 Stretch                  9    17                       1.54329
   12 Stretch                 11    12                       1.09139
   13 Stretch                 11    13                       1.09251
   14 Stretch                 11    14                       1.53234
   15 Stretch                 14    15                       1.24771
   16 Stretch                 14    16                       1.25317
   17 Stretch                 17    18                       1.22937
   18 Stretch                 17    19                       1.33865
   19 Stretch                 19    20                       1.00842
   20 Stretch                 19    21                       1.47495
   21 Stretch                 21    22                       1.08951
   22 Stretch                 21    23                       1.54720
   23 Stretch                 21    34                       1.54816
   24 Stretch                 23    24                       1.09044
   25 Stretch                 23    25                       1.09035
   26 Stretch                 23    26                       1.53889
   27 Stretch                 26    27                       1.08929
   28 Stretch                 26    28                       1.08908
   29 Stretch                 26    29                       1.52447
   30 Stretch                 29    30                       1.21972
   31 Stretch                 29    31                       1.31270
   32 Stretch                 31    32                       1.00041
   33 Stretch                 31    33                       1.01689
   34 Stretch                 34    35                       1.22867
   35 Stretch                 34    36                       1.32617
   36 Stretch                 36    37                       1.00302
   37 Stretch                 36    38                       1.01779
   38 Bend                     1     2     3               110.20369
   39 Bend                     1     2     4               109.90916
   40 Bend                     1     2     5               109.39355
   41 Bend                     2     5     6               119.98374
   42 Bend                     2     5     7               115.87341
   43 Bend                     3     2     4               109.39809
   44 Bend                     3     2     5               109.00856
   45 Bend                     4     2     5               108.90276
   46 Bend                     5     7     8               118.15176
   47 Bend                     5     7     9               127.08088
   48 Bend                     6     5     7               124.12292
   49 Bend                     7     9    10               109.54041
   50 Bend                     7     9    11               107.43660
   51 Bend                     7     9    17               114.53187
   52 Bend                     8     7     9               114.76009
   53 Bend                     9    11    12               109.83231
   54 Bend                     9    11    13               108.83074
   55 Bend                     9    11    14               111.09950
   56 Bend                     9    17    18               119.64078
   57 Bend                     9    17    19               118.01123
   58 Bend                    10     9    11               108.93098
   59 Bend                    10     9    17               107.40701
   60 Bend                    11     9    17               108.89147
   61 Bend                    11    14    15               117.56031
   62 Bend                    11    14    16               117.10884
   63 Bend                    12    11    13               107.77689
   64 Bend                    12    11    14               110.25587
   65 Bend                    13    11    14               108.96715
   66 Bend                    15    14    16               124.99644
   67 Bend                    17    19    20               115.98305
   68 Bend                    17    19    21               126.03818
   69 Bend                    18    17    19               122.32903
   70 Bend                    19    21    22               105.79768
   71 Bend                    19    21    23               112.05286
   72 Bend                    19    21    34               114.97265
   73 Bend                    20    19    21               117.42050
   74 Bend                    21    23    24               108.79096
   75 Bend                    21    23    25               108.32764
   76 Bend                    21    23    26               115.88645
   77 Bend                    21    34    35               120.75185
   78 Bend                    21    34    36               119.79655
   79 Bend                    22    21    23               106.30133
   80 Bend                    22    21    34               104.79736
   81 Bend                    23    21    34               112.04597
   82 Bend                    23    26    27               109.14315
   83 Bend                    23    26    28               108.78669
   84 Bend                    23    26    29               113.57663
   85 Bend                    24    23    25               107.42856
   86 Bend                    24    23    26               107.73160
   87 Bend                    25    23    26               108.37703
   88 Bend                    26    29    30               122.83745
   89 Bend                    26    29    31               118.60627
   90 Bend                    27    26    28               107.27142
   91 Bend                    27    26    29               109.59608
   92 Bend                    28    26    29               108.27149
   93 Bend                    29    31    32               116.55513
   94 Bend                    29    31    33               119.46500
   95 Bend                    30    29    31               118.54869
   96 Bend                    32    31    33               123.66825
   97 Bend                    34    36    37               118.77293
   98 Bend                    34    36    38               121.00790
   99 Bend                    35    34    36               119.43761
  100 Bend                    37    36    38               120.21376
  101 Torsion                  1     2     5     6          -2.22178
  102 Torsion                  1     2     5     7         179.33597
  103 Torsion                  2     5     7     8           1.87449
  104 Torsion                  2     5     7     9        -179.16163
  105 Torsion                  3     2     5     6         118.34364
  106 Torsion                  3     2     5     7         -60.09861
  107 Torsion                  4     2     5     6        -122.36338
  108 Torsion                  4     2     5     7          59.19437
  109 Torsion                  5     7     9    10          51.99632
  110 Torsion                  5     7     9    11         170.18058
  111 Torsion                  5     7     9    17         -68.72884
  112 Torsion                  6     5     7     8        -176.49561
  113 Torsion                  6     5     7     9           2.46826
  114 Torsion                  7     9    11    12         173.71221
  115 Torsion                  7     9    11    13         -68.51869
  116 Torsion                  7     9    11    14          51.45960
  117 Torsion                  7     9    17    18         155.19720
  118 Torsion                  7     9    17    19         -23.25615
  119 Torsion                  8     7     9    10        -129.00972
  120 Torsion                  8     7     9    11         -10.82545
  121 Torsion                  8     7     9    17         110.26513
  122 Torsion                  9    11    14    15          94.90445
  123 Torsion                  9    11    14    16         -78.79167
  124 Torsion                  9    17    19    20          -4.85120
  125 Torsion                  9    17    19    21        -176.01509
  126 Torsion                 10     9    11    12         -67.70992
  127 Torsion                 10     9    11    13          50.05919
  128 Torsion                 10     9    11    14         170.03747
  129 Torsion                 10     9    17    18          33.30021
  130 Torsion                 10     9    17    19        -145.15314
  131 Torsion                 11     9    17    18         -84.51653
  132 Torsion                 11     9    17    19          97.03012
  133 Torsion                 12    11     9    17          49.13915
  134 Torsion                 12    11    14    15         -27.10209
  135 Torsion                 12    11    14    16         159.20178
  136 Torsion                 13    11     9    17         166.90826
  137 Torsion                 13    11    14    15        -145.19836
  138 Torsion                 13    11    14    16          41.10552
  139 Torsion                 14    11     9    17         -73.11346
  140 Torsion                 17    19    21    22         178.65338
  141 Torsion                 17    19    21    23         -65.92046
  142 Torsion                 17    19    21    34          63.53008
  143 Torsion                 18    17    19    20         176.73967
  144 Torsion                 18    17    19    21           5.57578
  145 Torsion                 19    21    23    24          80.74409
  146 Torsion                 19    21    23    25        -162.76887
  147 Torsion                 19    21    23    26         -40.76966
  148 Torsion                 19    21    34    35        -163.91310
  149 Torsion                 19    21    34    36          17.45533
  150 Torsion                 20    19    21    22           7.60262
  151 Torsion                 20    19    21    23         123.02878
  152 Torsion                 20    19    21    34        -107.52068
  153 Torsion                 21    23    26    27          68.66194
  154 Torsion                 21    23    26    28        -174.59156
  155 Torsion                 21    23    26    29         -53.94272
  156 Torsion                 21    34    36    37        -179.59766
  157 Torsion                 21    34    36    38           1.24706
  158 Torsion                 22    21    23    24        -164.13664
  159 Torsion                 22    21    23    25         -47.64960
  160 Torsion                 22    21    23    26          74.34961
  161 Torsion                 22    21    34    35          80.38766
  162 Torsion                 22    21    34    36         -98.24391
  163 Torsion                 23    21    34    35         -34.45918
  164 Torsion                 23    21    34    36         146.90925
  165 Torsion                 23    26    29    30         -50.43008
  166 Torsion                 23    26    29    31         130.58772
  167 Torsion                 24    23    21    34         -50.21302
  168 Torsion                 24    23    26    27         -53.41569
  169 Torsion                 24    23    26    28          63.33082
  170 Torsion                 24    23    26    29        -176.02035
  171 Torsion                 25    23    21    34          66.27402
  172 Torsion                 25    23    26    27        -169.36508
  173 Torsion                 25    23    26    28         -52.61858
  174 Torsion                 25    23    26    29          68.03026
  175 Torsion                 26    23    21    34        -171.72676
  176 Torsion                 26    29    31    32        -179.48322
  177 Torsion                 26    29    31    33          -5.65787
  178 Torsion                 27    26    29    30        -172.78459
  179 Torsion                 27    26    29    31           8.23321
  180 Torsion                 28    26    29    30          70.50849
  181 Torsion                 28    26    29    31        -108.47370
  182 Torsion                 30    29    31    32           1.49032
  183 Torsion                 30    29    31    33         175.31566
  184 Torsion                 35    34    36    37           1.75269
  185 Torsion                 35    34    36    38        -177.40259


            XYZ format geometry
            -------------------
    38
 geometry
 H                    -4.39684363     0.94341531     0.75376522
 C                    -3.50084910     1.54642058     0.88492330
 H                    -3.03837377     1.32854376     1.84615650
 H                    -3.75541289     2.60382675     0.83754747
 C                    -2.51879132     1.23037260    -0.21573159
 O                    -2.78668858     0.37056658    -1.04765868
 N                    -1.38018409     1.90765334    -0.18686344
 H                    -1.23037579     2.56481036     0.57880367
 C                    -0.26398491     1.80900317    -1.14222805
 H                    -0.64156802     1.92974901    -2.15794870
 C                     0.71098205     2.95796778    -0.83230263
 H                     1.60882781     2.85701391    -1.44451934
 H                     0.23390122     3.90543936    -1.09357928
 C                     1.08225520     2.98054777     0.65420448
 O                     2.12986487     2.39564232     0.99652831
 O                     0.24733210     3.48043557     1.44379779
 C                     0.50635948     0.47267699    -1.09185087
 O                     1.11918372     0.08634681    -2.08509526
 N                     0.45209633    -0.24203905     0.03873150
 H                    -0.03398813     0.18816059     0.81045954
 C                     1.18229812    -1.49465204     0.30936234
 H                     0.91796265    -1.77800180     1.32763375
 C                     0.70728475    -2.65221026    -0.60072186
 H                     1.19016530    -2.55498322    -1.57356886
 H                     1.04235884    -3.59264314    -0.16233920
 C                    -0.81064945    -2.74101085    -0.83770335
 H                    -1.12786547    -1.89293023    -1.44325703
 H                    -1.02433112    -3.64369075    -1.40832506
 C                    -1.62715025    -2.78442327     0.44894377
 O                    -1.38563415    -3.55892160     1.35973370
 N                    -2.64616572    -1.96649484     0.57455654
 H                    -3.15557190    -2.01536835     1.43417664
 H                    -2.81739654    -1.26681689    -0.14321555
 C                     2.72470063    -1.36206934     0.32358739
 O                     3.44152881    -2.35675238     0.24359979
 N                     3.28212998    -0.16545358     0.45047805
 H                     4.28278544    -0.09666236     0.45167293
 H                     2.71116507     0.67019933     0.55807587

 ==============================================================================
                                internuclear distances
 ------------------------------------------------------------------------------
       center one      |      center two      | atomic units |  angstroms
 ------------------------------------------------------------------------------
    2 C                |   1 H                |     2.05592  |     1.08794
    3 H                |   2 C                |     2.05739  |     1.08873
    4 H                |   2 C                |     2.05725  |     1.08865
    5 C                |   2 C                |     2.85077  |     1.50856
    6 O                |   5 C                |     2.31685  |     1.22603
    7 N                |   5 C                |     2.50413  |     1.32513
    8 H                |   7 N                |     1.92765  |     1.02007
    9 C                |   7 N                |     2.78268  |     1.47253
   10 H                |   9 C                |     2.06044  |     1.09034
   11 C                |   9 C                |     2.90719  |     1.53842
   12 H                |  11 C                |     2.06242  |     1.09139
   13 H                |  11 C                |     2.06454  |     1.09251
   14 C                |  11 C                |     2.89570  |     1.53234
   15 O                |  14 C                |     2.35783  |     1.24771
   16 O                |  14 C                |     2.36815  |     1.25317
   17 C                |   9 C                |     2.91639  |     1.54329
   18 O                |  17 C                |     2.32316  |     1.22937
   19 N                |  17 C                |     2.52968  |     1.33865
   20 H                |  19 N                |     1.90564  |     1.00842
   21 C                |  19 N                |     2.78725  |     1.47495
   22 H                |  21 C                |     2.05888  |     1.08951
   23 C                |  21 C                |     2.92379  |     1.54720
   24 H                |  23 C                |     2.06063  |     1.09044
   25 H                |  23 C                |     2.06047  |     1.09035
   26 C                |  23 C                |     2.90807  |     1.53889
   27 H                |  26 C                |     2.05847  |     1.08929
   28 H                |  26 C                |     2.05807  |     1.08908
   29 C                |  26 C                |     2.88084  |     1.52447
   30 O                |  29 C                |     2.30494  |     1.21972
   31 N                |  29 C                |     2.48064  |     1.31270
   32 H                |  31 N                |     1.89051  |     1.00041
   33 H                |  31 N                |     1.92164  |     1.01689
   34 C                |  21 C                |     2.92559  |     1.54816
   35 O                |  34 C                |     2.32185  |     1.22867
   36 N                |  34 C                |     2.50609  |     1.32617
   37 H                |  36 N                |     1.89543  |     1.00302
   38 H                |  36 N                |     1.92334  |     1.01779
 ------------------------------------------------------------------------------
                         number of included internuclear distances:         37
 ==============================================================================



 ==============================================================================
                                 internuclear angles
 ------------------------------------------------------------------------------
        center 1       |       center 2       |       center 3       |  degrees
 ------------------------------------------------------------------------------
    1 H                |   2 C                |   3 H                |   110.20
    1 H                |   2 C                |   4 H                |   109.91
    1 H                |   2 C                |   5 C                |   109.39
    3 H                |   2 C                |   4 H                |   109.40
    3 H                |   2 C                |   5 C                |   109.01
    4 H                |   2 C                |   5 C                |   108.90
    2 C                |   5 C                |   6 O                |   119.98
    2 C                |   5 C                |   7 N                |   115.87
    6 O                |   5 C                |   7 N                |   124.12
    5 C                |   7 N                |   8 H                |   118.15
    5 C                |   7 N                |   9 C                |   127.08
    8 H                |   7 N                |   9 C                |   114.76
    7 N                |   9 C                |  10 H                |   109.54
    7 N                |   9 C                |  11 C                |   107.44
    7 N                |   9 C                |  17 C                |   114.53
   10 H                |   9 C                |  11 C                |   108.93
   10 H                |   9 C                |  17 C                |   107.41
   11 C                |   9 C                |  17 C                |   108.89
    9 C                |  11 C                |  12 H                |   109.83
    9 C                |  11 C                |  13 H                |   108.83
    9 C                |  11 C                |  14 C                |   111.10
   12 H                |  11 C                |  13 H                |   107.78
   12 H                |  11 C                |  14 C                |   110.26
   13 H                |  11 C                |  14 C                |   108.97
   11 C                |  14 C                |  15 O                |   117.56
   11 C                |  14 C                |  16 O                |   117.11
   15 O                |  14 C                |  16 O                |   125.00
    9 C                |  17 C                |  18 O                |   119.64
    9 C                |  17 C                |  19 N                |   118.01
   18 O                |  17 C                |  19 N                |   122.33
   17 C                |  19 N                |  20 H                |   115.98
   17 C                |  19 N                |  21 C                |   126.04
   20 H                |  19 N                |  21 C                |   117.42
   19 N                |  21 C                |  22 H                |   105.80
   19 N                |  21 C                |  23 C                |   112.05
   19 N                |  21 C                |  34 C                |   114.97
   22 H                |  21 C                |  23 C                |   106.30
   22 H                |  21 C                |  34 C                |   104.80
   23 C                |  21 C                |  34 C                |   112.05
   21 C                |  23 C                |  24 H                |   108.79
   21 C                |  23 C                |  25 H                |   108.33
   21 C                |  23 C                |  26 C                |   115.89
   24 H                |  23 C                |  25 H                |   107.43
   24 H                |  23 C                |  26 C                |   107.73
   25 H                |  23 C                |  26 C                |   108.38
   23 C                |  26 C                |  27 H                |   109.14
   23 C                |  26 C                |  28 H                |   108.79
   23 C                |  26 C                |  29 C                |   113.58
   27 H                |  26 C                |  28 H                |   107.27
   27 H                |  26 C                |  29 C                |   109.60
   28 H                |  26 C                |  29 C                |   108.27
   26 C                |  29 C                |  30 O                |   122.84
   26 C                |  29 C                |  31 N                |   118.61
   30 O                |  29 C                |  31 N                |   118.55
   29 C                |  31 N                |  32 H                |   116.56
   29 C                |  31 N                |  33 H                |   119.47
   32 H                |  31 N                |  33 H                |   123.67
   21 C                |  34 C                |  35 O                |   120.75
   21 C                |  34 C                |  36 N                |   119.80
   35 O                |  34 C                |  36 N                |   119.44
   34 C                |  36 N                |  37 H                |   118.77
   34 C                |  36 N                |  38 H                |   121.01
   37 H                |  36 N                |  38 H                |   120.21
 ------------------------------------------------------------------------------
                            number of included internuclear angles:         63
 ==============================================================================



  library name resolved from: environment
  library file name is: </opt/rit/el9/20230413/app/linux-rhel9-x86_64_v3/gcc-11.2.1/nwchem-7.2.0-oxtctbuhfuzyfaoziquq6bki22grib3g/share/nwchem/libraries/>
  


 Summary of "ao basis" -> "" (cartesian)
 ------------------------------------------------------------------------------
       Tag                 Description            Shells   Functions and Types
 ---------------- ------------------------------  ------  ---------------------
 *                        aug-cc-pvdz                 on all atoms 


                      Basis "ao basis" -> "ao basis" (cartesian)
                      -----
  H (Hydrogen)
  ------------
            Exponent  Coefficients 
       -------------- ---------------------------------------------------------
  1 S  1.30100000E+01  0.019685
  1 S  1.96200000E+00  0.137977
  1 S  4.44600000E-01  0.478148

  2 S  1.22000000E-01  1.000000

  3 S  2.97400000E-02  1.000000

  4 P  7.27000000E-01  1.000000

  5 P  1.41000000E-01  1.000000

  C (Carbon)
  ----------
            Exponent  Coefficients 
       -------------- ---------------------------------------------------------
  1 S  6.66500000E+03  0.000692
  1 S  1.00000000E+03  0.005329
  1 S  2.28000000E+02  0.027077
  1 S  6.47100000E+01  0.101718
  1 S  2.10600000E+01  0.274740
  1 S  7.49500000E+00  0.448564
  1 S  2.79700000E+00  0.285074
  1 S  5.21500000E-01  0.015204

  2 S  6.66500000E+03 -0.000146
  2 S  1.00000000E+03 -0.001154
  2 S  2.28000000E+02 -0.005725
  2 S  6.47100000E+01 -0.023312
  2 S  2.10600000E+01 -0.063955
  2 S  7.49500000E+00 -0.149981
  2 S  2.79700000E+00 -0.127262
  2 S  5.21500000E-01  0.544529

  3 S  1.59600000E-01  1.000000

  4 S  4.69000000E-02  1.000000

  5 P  9.43900000E+00  0.038109
  5 P  2.00200000E+00  0.209480
  5 P  5.45600000E-01  0.508557

  6 P  1.51700000E-01  1.000000

  7 P  4.04100000E-02  1.000000

  8 D  5.50000000E-01  1.000000

  9 D  1.51000000E-01  1.000000

  O (Oxygen)
  ----------
            Exponent  Coefficients 
       -------------- ---------------------------------------------------------
  1 S  1.17200000E+04  0.000710
  1 S  1.75900000E+03  0.005470
  1 S  4.00800000E+02  0.027837
  1 S  1.13700000E+02  0.104800
  1 S  3.70300000E+01  0.283062
  1 S  1.32700000E+01  0.448719
  1 S  5.02500000E+00  0.270952
  1 S  1.01300000E+00  0.015458

  2 S  1.17200000E+04 -0.000160
  2 S  1.75900000E+03 -0.001263
  2 S  4.00800000E+02 -0.006267
  2 S  1.13700000E+02 -0.025716
  2 S  3.70300000E+01 -0.070924
  2 S  1.32700000E+01 -0.165411
  2 S  5.02500000E+00 -0.116955
  2 S  1.01300000E+00  0.557368

  3 S  3.02300000E-01  1.000000

  4 S  7.89600000E-02  1.000000

  5 P  1.77000000E+01  0.043018
  5 P  3.85400000E+00  0.228913
  5 P  1.04600000E+00  0.508728

  6 P  2.75300000E-01  1.000000

  7 P  6.85600000E-02  1.000000

  8 D  1.18500000E+00  1.000000

  9 D  3.32000000E-01  1.000000

  N (Nitrogen)
  ------------
            Exponent  Coefficients 
       -------------- ---------------------------------------------------------
  1 S  9.04600000E+03  0.000700
  1 S  1.35700000E+03  0.005389
  1 S  3.09300000E+02  0.027406
  1 S  8.77300000E+01  0.103207
  1 S  2.85600000E+01  0.278723
  1 S  1.02100000E+01  0.448540
  1 S  3.83800000E+00  0.278238
  1 S  7.46600000E-01  0.015440

  2 S  9.04600000E+03 -0.000153
  2 S  1.35700000E+03 -0.001208
  2 S  3.09300000E+02 -0.005992
  2 S  8.77300000E+01 -0.024544
  2 S  2.85600000E+01 -0.067459
  2 S  1.02100000E+01 -0.158078
  2 S  3.83800000E+00 -0.121831
  2 S  7.46600000E-01  0.549003

  3 S  2.24800000E-01  1.000000

  4 S  6.12400000E-02  1.000000

  5 P  1.35500000E+01  0.039919
  5 P  2.91700000E+00  0.217169
  5 P  7.97300000E-01  0.510319

  6 P  2.18500000E-01  1.000000

  7 P  5.61100000E-02  1.000000

  8 D  8.17000000E-01  1.000000

  9 D  2.30000000E-01  1.000000



 Summary of "ao basis" -> "ao basis" (cartesian)
 ------------------------------------------------------------------------------
       Tag                 Description            Shells   Functions and Types
 ---------------- ------------------------------  ------  ---------------------
 H                        aug-cc-pvdz                5        9   3s2p
 C                        aug-cc-pvdz                9       25   4s3p2d
 O                        aug-cc-pvdz                9       25   4s3p2d
 N                        aug-cc-pvdz                9       25   4s3p2d


 ------------------------------------------------------------------------
 scf: no. of closed-shell electrons is not even!                   0
 ------------------------------------------------------------------------
 ------------------------------------------------------------------------
  current input line : 
     0: 
 ------------------------------------------------------------------------
 ------------------------------------------------------------------------
 scf: no. of closed-shell electrons is not even!                   0
 ------------------------------------------------------------------------
 ------------------------------------------------------------------------
  current input line : 
     0: 
 ------------------------------------------------------------------------
 ------------------------------------------------------------------------
 There is an error in the input file
 ------------------------------------------------------------------------
 For more information see the NWChem manual at https://nwchemgit.github.io
 scf: no. of closed-shell electrons is not even!                   0
 ------------------------------------------------------------------------
 ------------------------------------------------------------------------
  current input line : 
     0: 
 ------------------------------------------------------------------------
 ------------------------------------------------------------------------
 There is an error in the input file
 ------------------------------------------------------------------------
 For more information see the NWChem manual at https://nwchemgit.github.io


 For further details see manual section:                                                                                                                                                                                                                                                                
 scf: no. of closed-shell electrons is not even!                   0
 ------------------------------------------------------------------------
 ------------------------------------------------------------------------
  current input line : 
     0: 
 ------------------------------------------------------------------------
 ------------------------------------------------------------------------
 There is an error in the input file
 ------------------------------------------------------------------------
 For more information see the NWChem manual at https://nwchemgit.github.io


 For further details see manual section:                                                                                                                                                                                                                                                                
 scf: no. of closed-shell electrons is not even!                   0
 ------------------------------------------------------------------------
 ------------------------------------------------------------------------
  current input line : 
     0: 
 ------------------------------------------------------------------------
 ------------------------------------------------------------------------
 There is an error in the input file
 ------------------------------------------------------------------------
 For more information see the NWChem manual at https://nwchemgit.github.io


 For further details see manual section:                                                                                                                                                                                                                                                                
 scf: no. of closed-shell electrons is not even!                   0
 ------------------------------------------------------------------------
 ------------------------------------------------------------------------
  current input line : 
     0: 
 ------------------------------------------------------------------------
 ------------------------------------------------------------------------
 There is an error in the input file
 ------------------------------------------------------------------------
 For more information see the NWChem manual at https://nwchemgit.github.io


 For further details see manual section:                                                                                                                                                                                                                                                                
 scf: no. of closed-shell electrons is not even!                   0
 ------------------------------------------------------------------------
 ------------------------------------------------------------------------
  current input line : 
     0: 
 ------------------------------------------------------------------------
 ------------------------------------------------------------------------
 There is an error in the input file
 ------------------------------------------------------------------------
 For more information see the NWChem manual at https://nwchemgit.github.io


 For further details see manual section:                                                                                                                                                                                                                                                                
 There is an error in the input file
 ------------------------------------------------------------------------
 For more information see the NWChem manual at https://nwchemgit.github.io


 For further details see manual section:                                                                                                                                                                                                                                                                
1:scf: no. of closed-shell electrons is not even!:Received an Error in Communication


 For further details see manual section:                                                                                                                                                                                                                                                                
2:scf: no. of closed-shell electrons is not even!:Received an Error in Communication
3:scf: no. of closed-shell electrons is not even!:Received an Error in Communication
4:scf: no. of closed-shell electrons is not even!:Received an Error in Communication
5:scf: no. of closed-shell electrons is not even!:Received an Error in Communication
6:scf: no. of closed-shell electrons is not even!:Received an Error in Communication
7:scf: no. of closed-shell electrons is not even!:Received an Error in Communication
 scf: no. of closed-shell electrons is not even!                   0
 ------------------------------------------------------------------------
 ------------------------------------------------------------------------
  current input line : 
    53: task scf energy
 ------------------------------------------------------------------------
 ------------------------------------------------------------------------
 There is an error in the input file
 ------------------------------------------------------------------------
 For more information see the NWChem manual at https://nwchemgit.github.io


 For further details see manual section:                                                                                                                                                                                                                                                                
0:scf: no. of closed-shell electrons is not even!:Received an Error in Communication
--------------------------------------------------------------------------
MPI_ABORT was invoked on rank 4 in communicator MPI COMMUNICATOR 3 DUP FROM 0
with errorcode -1.

NOTE: invoking MPI_ABORT causes Open MPI to kill all MPI processes.
You may or may not see output from other processes, depending on
exactly when Open MPI kills them.
--------------------------------------------------------------------------
--------------------------------------------------------------------------
MPI_ABORT was invoked on rank 6 in communicator MPI COMMUNICATOR 3 DUP FROM 0
with errorcode -1.

NOTE: invoking MPI_ABORT causes Open MPI to kill all MPI processes.
You may or may not see output from other processes, depending on
exactly when Open MPI kills them.
--------------------------------------------------------------------------
--------------------------------------------------------------------------
MPI_ABORT was invoked on rank 2 in communicator MPI COMMUNICATOR 3 DUP FROM 0
with errorcode -1.

NOTE: invoking MPI_ABORT causes Open MPI to kill all MPI processes.
You may or may not see output from other processes, depending on
exactly when Open MPI kills them.
--------------------------------------------------------------------------
--------------------------------------------------------------------------
MPI_ABORT was invoked on rank 0 in communicator MPI COMMUNICATOR 3 DUP FROM 0
with errorcode -1.

NOTE: invoking MPI_ABORT causes Open MPI to kill all MPI processes.
You may or may not see output from other processes, depending on
exactly when Open MPI kills them.
--------------------------------------------------------------------------
--------------------------------------------------------------------------
MPI_ABORT was invoked on rank 3 in communicator MPI COMMUNICATOR 3 DUP FROM 0
with errorcode -1.

NOTE: invoking MPI_ABORT causes Open MPI to kill all MPI processes.
You may or may not see output from other processes, depending on
exactly when Open MPI kills them.
--------------------------------------------------------------------------
--------------------------------------------------------------------------
MPI_ABORT was invoked on rank 7 in communicator MPI COMMUNICATOR 3 DUP FROM 0
with errorcode -1.

NOTE: invoking MPI_ABORT causes Open MPI to kill all MPI processes.
You may or may not see output from other processes, depending on
exactly when Open MPI kills them.
--------------------------------------------------------------------------
--------------------------------------------------------------------------
MPI_ABORT was invoked on rank 5 in communicator MPI COMMUNICATOR 3 DUP FROM 0
with errorcode -1.

NOTE: invoking MPI_ABORT causes Open MPI to kill all MPI processes.
You may or may not see output from other processes, depending on
exactly when Open MPI kills them.
--------------------------------------------------------------------------
--------------------------------------------------------------------------
MPI_ABORT was invoked on rank 1 in communicator MPI COMMUNICATOR 3 DUP FROM 0
with errorcode -1.

NOTE: invoking MPI_ABORT causes Open MPI to kill all MPI processes.
You may or may not see output from other processes, depending on
exactly when Open MPI kills them.
--------------------------------------------------------------------------
srun: Job step aborted: Waiting up to 32 seconds for job step to finish.
slurmstepd: error: *** STEP 6619389.109 ON nova21-speedy-12 CANCELLED AT 2025-07-11T03:00:06 ***
slurmstepd: error: --task-epilog failed status=9
srun: error: nova21-speedy-12: tasks 0-1,3,5-7: Killed
srun: error: nova21-speedy-12: tasks 2,4: Exited with exit code 255
