export TMOUT=5400
export TMPDIR=/tmp
export PTMPDIR=/tmp/ptmp
 argument  1 = inputs/ASP_ALA_5.nw



============================== echo of input deck ==============================
start ASP_ALA_5
geometry
H          4.78500        7.91800       12.20400
C          4.19100        8.70300       11.73900
H          3.48900        8.26800       11.03000
H          4.84000        9.41000       11.22800
C          3.41600        9.43200       12.81000
O          3.53700        9.10800       13.98300
N          2.63100       10.41600       12.38900
H          2.56300       10.59900       11.39200
C          1.70100       11.18900       13.22300
H          2.15000       11.37900       14.19800
C          1.42100       12.53400       12.52200
H          0.80900       13.15000       13.18300
H          2.36500       13.05600       12.36000
C          0.70500       12.36300       11.17000
O         -0.35100       13.00300       10.99600
O          1.15000       11.50800       10.36700
C          0.35800       10.46300       13.44400
O         -0.22400       10.55200       14.52300
N         -0.13200        9.76800       12.40800
H          0.38600        9.86000       11.54100
C         -1.45900        9.14900       12.33000
H         -1.55900        8.79500       11.30400
C         -1.50500        7.90100       13.22800
H         -2.43200        7.35500       13.05100
H         -0.65900        7.25100       13.00500
H         -1.46500        8.19800       14.27600
C         -2.65100       10.12200       12.52500
O         -3.75000        9.70900       12.88800
N         -2.49100       11.41400       12.26000
H         -3.26800       12.03400       12.39900
H         -1.61100       11.77300       11.90100
end

basis
 * library aug-cc-pvdz
end

echo

scf
 direct
end

task scf energy
================================================================================


                                         
                                         


             Northwest Computational Chemistry Package (NWChem) 7.2.0
             --------------------------------------------------------


                    Environmental Molecular Sciences Laboratory
                       Pacific Northwest National Laboratory
                                Richland, WA 99352

                              Copyright (c) 1994-2022
                       Pacific Northwest National Laboratory
                            Battelle Memorial Institute

             NWChem is an open-source computational chemistry package
                        distributed under the terms of the
                      Educational Community License (ECL) 2.0
             A copy of the license is included with this distribution
                              in the LICENSE.TXT file

                                  ACKNOWLEDGMENT
                                  --------------

            This software and its documentation were developed at the
            EMSL at Pacific Northwest National Laboratory, a multiprogram
            national laboratory, operated for the U.S. Department of Energy
            by Battelle under Contract Number DE-AC05-76RL01830. Support
            for this work was provided by the Department of Energy Office
            of Biological and Environmental Research, Office of Basic
            Energy Sciences, and the Office of Advanced Scientific Computing.


           Job information
           ---------------

    hostname        = nova21-swift-1
    program         = /opt/rit/el9/20230413/app/linux-rhel9-x86_64_v3/gcc-11.2.1/nwchem-7.2.0-oxtctbuhfuzyfaoziquq6bki22grib3g/bin/nwchem
    date            = Thu Jul 10 11:10:15 2025

    compiled        = Wed_May_17_23:46:39_2023
    source          = /tmp/root/spack-stage/spack-stage-nwchem-7.2.0-oxtctbuhfuzyfaoziquq6bki22grib3g/spack-src
    nwchem branch   = 7.2.0
    nwchem revision = d0d141fd
    ga revision     = 5.8.0
    use scalapack   = T
    input           = inputs/ASP_ALA_5.nw
    prefix          = ASP_ALA_5.
    data base       = ./ASP_ALA_5.db
    status          = startup
    nproc           =        8
    time left       =     -1s



           Memory information
           ------------------

    heap     =   26214396 doubles =    200.0 Mbytes
    stack    =   26214401 doubles =    200.0 Mbytes
    global   =   52428800 doubles =    400.0 Mbytes (distinct from heap & stack)
    total    =  104857597 doubles =    800.0 Mbytes
    verify   = yes
    hardfail = no 


           Directory information
           ---------------------

  0 permanent = .
  0 scratch   = .




                                NWChem Input Module
                                -------------------



 Scaling coordinates for geometry "geometry" by  1.889725989
 (inverse scale =  0.529177249)

 C1  symmetry detected

          ------
          auto-z
          ------
  no constraints, skipping    0.0000000000000000     
  no constraints, skipping    0.0000000000000000     


                             Geometry "geometry" -> ""
                             -------------------------

 Output coordinates in angstroms (scale by  1.889725989 to convert to a.u.)

  No.       Tag          Charge          X              Y              Z
 ---- ---------------- ---------- -------------- -------------- --------------
    1 H                    1.0000    -1.80926861    -4.54113706    -1.30114757
    2 C                    6.0000    -0.92911712    -3.90241514    -1.35266111
    3 H                    1.0000    -1.00482583    -3.23262589    -2.20727246
    4 H                    1.0000    -0.03115486    -4.50937693    -1.43887111
    5 C                    6.0000    -0.84624902    -3.07785087    -0.09078408
    6 O                    8.0000    -1.68790117    -3.21202376     0.78623662
    7 N                    7.0000     0.17706509    -2.23595803    -0.01484549
    8 H                    1.0000     0.81337359    -2.16240061    -0.80340291
    9 C                    6.0000     0.40448634    -1.25530917     1.05501075
   10 H                    1.0000     0.12479509    -1.68621947     2.01647584
   11 C                    6.0000     1.90441743    -0.89672450     1.07621842
   12 H                    1.0000     2.09402721    -0.24413445     1.93008922
   13 H                    1.0000     2.48774850    -1.80757927     1.21740076
   14 C                    6.0000     2.36837483    -0.20027764    -0.21587535
   15 O                    8.0000     2.95786328     0.89223797    -0.09787108
   16 O                    8.0000     2.02932725    -0.70175014    -1.31470704
   17 C                    6.0000    -0.40628691     0.04151011     0.85383299
   18 O                    8.0000    -0.87743991     0.63396268     1.82228578
   19 N                    7.0000    -0.54131236     0.48180770    -0.40486759
   20 H                    1.0000    -0.01704056    -0.03439517    -1.10282939
   21 C                    6.0000    -1.11377298     1.76758270    -0.81626218
   22 H                    1.0000    -0.93511831     1.83974852    -1.88904669
   23 C                    6.0000    -2.64035988     1.74147081    -0.62951476
   24 H                    1.0000    -3.08072865     2.63196702    -1.07880960
   25 H                    1.0000    -3.05840763     0.85569774    -1.10762264
   26 H                    1.0000    -2.88256916     1.72579288     0.43312434
   27 C                    6.0000    -0.41737773     3.01848146    -0.21968533
   28 O                    8.0000    -1.00999051     4.09190187    -0.13772363
   29 N                    7.0000     0.84904669     2.93709491     0.17355050
   30 H                    1.0000     1.28480129     3.75167490     0.56601370
   31 H                    1.0000     1.38121075     2.07894024     0.06159526

      Atomic Mass 
      ----------- 

      H                  1.007825
      C                 12.000000
      O                 15.994910
      N                 14.003070


 Effective nuclear repulsion energy (a.u.)    1317.9486663403

            Nuclear Dipole moment (a.u.) 
            ----------------------------
        X                 Y               Z
 ---------------- ---------------- ----------------
    -0.0000000000    -0.0000000000    -0.0000000000



                                Z-matrix (autoz)
                                -------- 

 Units are Angstrom for bonds and degrees for angles

      Type          Name      I     J     K     L     M      Value
      ----------- --------  ----- ----- ----- ----- ----- ----------
    1 Stretch                  1     2                       1.08871
    2 Stretch                  2     3                       1.08844
    3 Stretch                  2     4                       1.08728
    4 Stretch                  2     5                       1.50967
    5 Stretch                  5     6                       1.22293
    6 Stretch                  5     7                       1.32730
    7 Stretch                  7     8                       1.01593
    8 Stretch                  7     9                       1.46901
    9 Stretch                  9    10                       1.09010
   10 Stretch                  9    11                       1.54234
   11 Stretch                  9    17                       1.54258
   12 Stretch                 11    12                       1.09129
   13 Stretch                 11    13                       1.09081
   14 Stretch                 11    14                       1.53942
   15 Stretch                 14    15                       1.24700
   16 Stretch                 14    16                       1.25454
   17 Stretch                 17    18                       1.22918
   18 Stretch                 17    19                       1.34031
   19 Stretch                 19    20                       1.01414
   20 Stretch                 19    21                       1.46635
   21 Stretch                 21    22                       1.08995
   22 Stretch                 21    23                       1.53819
   23 Stretch                 21    27                       1.55101
   24 Stretch                 23    24                       1.09031
   25 Stretch                 23    25                       1.08993
   26 Stretch                 23    26                       1.09001
   27 Stretch                 27    28                       1.22888
   28 Stretch                 27    29                       1.32857
   29 Stretch                 29    30                       1.00372
   30 Stretch                 29    31                       1.01595
   31 Bend                     1     2     3               109.99510
   32 Bend                     1     2     4               110.11570
   33 Bend                     1     2     5               108.98153
   34 Bend                     2     5     6               120.11490
   35 Bend                     2     5     7               115.88612
   36 Bend                     3     2     4               109.79836
   37 Bend                     3     2     5               108.90536
   38 Bend                     4     2     5               109.01682
   39 Bend                     5     7     8               118.97321
   40 Bend                     5     7     9               125.76414
   41 Bend                     6     5     7               123.99827
   42 Bend                     7     9    10               109.80018
   43 Bend                     7     9    11               108.40746
   44 Bend                     7     9    17               112.63469
   45 Bend                     8     7     9               114.83393
   46 Bend                     9    11    12               108.58788
   47 Bend                     9    11    13               109.12954
   48 Bend                     9    11    14               112.75172
   49 Bend                     9    17    18               120.25901
   50 Bend                     9    17    19               116.84592
   51 Bend                    10     9    11               109.22586
   52 Bend                    10     9    17               108.20921
   53 Bend                    11     9    17               108.51069
   54 Bend                    11    14    15               117.34891
   55 Bend                    11    14    16               118.22110
   56 Bend                    12    11    13               107.76768
   57 Bend                    12    11    14               109.50130
   58 Bend                    13    11    14               108.97998
   59 Bend                    15    14    16               124.11461
   60 Bend                    17    19    20               115.27963
   61 Bend                    17    19    21               126.21783
   62 Bend                    18    17    19               122.88552
   63 Bend                    19    21    22               105.67647
   64 Bend                    19    21    23               109.78597
   65 Bend                    19    21    27               115.08679
   66 Bend                    20    19    21               117.06870
   67 Bend                    21    23    24               109.69133
   68 Bend                    21    23    25               109.95010
   69 Bend                    21    23    26               109.82427
   70 Bend                    21    27    28               120.90479
   71 Bend                    21    27    29               119.50084
   72 Bend                    22    21    23               106.45689
   73 Bend                    22    21    27               104.57142
   74 Bend                    23    21    27               114.36843
   75 Bend                    24    23    25               109.15198
   76 Bend                    24    23    26               108.88881
   77 Bend                    25    23    26               109.31294
   78 Bend                    27    29    30               118.67571
   79 Bend                    27    29    31               121.22729
   80 Bend                    28    27    29               119.56769
   81 Bend                    30    29    31               120.07889
   82 Torsion                  1     2     5     6           0.89037
   83 Torsion                  1     2     5     7        -179.40423
   84 Torsion                  2     5     7     8           2.45865
   85 Torsion                  2     5     7     9         174.53422
   86 Torsion                  3     2     5     6         120.89193
   87 Torsion                  3     2     5     7         -59.40267
   88 Torsion                  4     2     5     6        -119.32414
   89 Torsion                  4     2     5     7          60.38126
   90 Torsion                  5     7     9    10          38.67214
   91 Torsion                  5     7     9    11         157.92556
   92 Torsion                  5     7     9    17         -81.98893
   93 Torsion                  6     5     7     8        -177.84872
   94 Torsion                  6     5     7     9          -5.77316
   95 Torsion                  7     9    11    12        -174.55364
   96 Torsion                  7     9    11    13         -57.33295
   97 Torsion                  7     9    11    14          63.91585
   98 Torsion                  7     9    17    18         143.67329
   99 Torsion                  7     9    17    19         -37.41867
  100 Torsion                  8     7     9    10        -148.96518
  101 Torsion                  8     7     9    11         -29.71176
  102 Torsion                  8     7     9    17          90.37375
  103 Torsion                  9    11    14    15         126.48433
  104 Torsion                  9    11    14    16         -47.33535
  105 Torsion                  9    17    19    20          -5.75460
  106 Torsion                  9    17    19    21        -171.60301
  107 Torsion                 10     9    11    12         -54.93952
  108 Torsion                 10     9    11    13          62.28117
  109 Torsion                 10     9    11    14        -176.47003
  110 Torsion                 10     9    17    18          22.10435
  111 Torsion                 10     9    17    19        -158.98761
  112 Torsion                 11     9    17    18         -96.30075
  113 Torsion                 11     9    17    19          82.60729
  114 Torsion                 12    11     9    17          62.81997
  115 Torsion                 12    11    14    15           5.47301
  116 Torsion                 12    11    14    16        -168.34667
  117 Torsion                 13    11     9    17        -179.95934
  118 Torsion                 13    11    14    15        -112.18188
  119 Torsion                 13    11    14    16          73.99844
  120 Torsion                 14    11     9    17         -58.71054
  121 Torsion                 17    19    21    22         172.38093
  122 Torsion                 17    19    21    23         -73.18412
  123 Torsion                 17    19    21    27          57.55213
  124 Torsion                 18    17    19    20         173.12223
  125 Torsion                 18    17    19    21           7.27382
  126 Torsion                 19    21    23    24        -171.15068
  127 Torsion                 19    21    23    25         -51.11080
  128 Torsion                 19    21    23    26          69.21142
  129 Torsion                 19    21    27    28        -157.45907
  130 Torsion                 19    21    27    29          24.42803
  131 Torsion                 20    19    21    22           6.75608
  132 Torsion                 20    19    21    23         121.19103
  133 Torsion                 20    19    21    27        -108.07272
  134 Torsion                 21    27    29    30        -179.41565
  135 Torsion                 21    27    29    31           2.13192
  136 Torsion                 22    21    23    24         -57.21622
  137 Torsion                 22    21    23    25          62.82366
  138 Torsion                 22    21    23    26        -176.85413
  139 Torsion                 22    21    27    28          87.07590
  140 Torsion                 22    21    27    29         -91.03700
  141 Torsion                 23    21    27    28         -28.96937
  142 Torsion                 23    21    27    29         152.91772
  143 Torsion                 24    23    21    27          57.73151
  144 Torsion                 25    23    21    27         177.77139
  145 Torsion                 26    23    21    27         -61.90639
  146 Torsion                 28    27    29    30           2.44594
  147 Torsion                 28    27    29    31        -176.00649


            XYZ format geometry
            -------------------
    31
 geometry
 H                    -1.80926861    -4.54113706    -1.30114757
 C                    -0.92911712    -3.90241514    -1.35266111
 H                    -1.00482583    -3.23262589    -2.20727246
 H                    -0.03115486    -4.50937693    -1.43887111
 C                    -0.84624902    -3.07785087    -0.09078408
 O                    -1.68790117    -3.21202376     0.78623662
 N                     0.17706509    -2.23595803    -0.01484549
 H                     0.81337359    -2.16240061    -0.80340291
 C                     0.40448634    -1.25530917     1.05501075
 H                     0.12479509    -1.68621947     2.01647584
 C                     1.90441743    -0.89672450     1.07621842
 H                     2.09402721    -0.24413445     1.93008922
 H                     2.48774850    -1.80757927     1.21740076
 C                     2.36837483    -0.20027764    -0.21587535
 O                     2.95786328     0.89223797    -0.09787108
 O                     2.02932725    -0.70175014    -1.31470704
 C                    -0.40628691     0.04151011     0.85383299
 O                    -0.87743991     0.63396268     1.82228578
 N                    -0.54131236     0.48180770    -0.40486759
 H                    -0.01704056    -0.03439517    -1.10282939
 C                    -1.11377298     1.76758270    -0.81626218
 H                    -0.93511831     1.83974852    -1.88904669
 C                    -2.64035988     1.74147081    -0.62951476
 H                    -3.08072865     2.63196702    -1.07880960
 H                    -3.05840763     0.85569774    -1.10762264
 H                    -2.88256916     1.72579288     0.43312434
 C                    -0.41737773     3.01848146    -0.21968533
 O                    -1.00999051     4.09190187    -0.13772363
 N                     0.84904669     2.93709491     0.17355050
 H                     1.28480129     3.75167490     0.56601370
 H                     1.38121075     2.07894024     0.06159526

 ==============================================================================
                                internuclear distances
 ------------------------------------------------------------------------------
       center one      |      center two      | atomic units |  angstroms
 ------------------------------------------------------------------------------
    2 C                |   1 H                |     2.05736  |     1.08871
    3 H                |   2 C                |     2.05686  |     1.08844
    4 H                |   2 C                |     2.05466  |     1.08728
    5 C                |   2 C                |     2.85286  |     1.50967
    6 O                |   5 C                |     2.31099  |     1.22293
    7 N                |   5 C                |     2.50823  |     1.32730
    8 H                |   7 N                |     1.91984  |     1.01593
    9 C                |   7 N                |     2.77602  |     1.46901
   10 H                |   9 C                |     2.06000  |     1.09010
   11 C                |   9 C                |     2.91461  |     1.54234
   12 H                |  11 C                |     2.06225  |     1.09129
   13 H                |  11 C                |     2.06133  |     1.09081
   14 C                |  11 C                |     2.90907  |     1.53942
   15 O                |  14 C                |     2.35649  |     1.24700
   16 O                |  14 C                |     2.37073  |     1.25454
   17 C                |   9 C                |     2.91506  |     1.54258
   18 O                |  17 C                |     2.32282  |     1.22918
   19 N                |  17 C                |     2.53281  |     1.34031
   20 H                |  19 N                |     1.91644  |     1.01414
   21 C                |  19 N                |     2.77099  |     1.46635
   22 H                |  21 C                |     2.05971  |     1.08995
   23 C                |  21 C                |     2.90675  |     1.53819
   24 H                |  23 C                |     2.06039  |     1.09031
   25 H                |  23 C                |     2.05967  |     1.08993
   26 H                |  23 C                |     2.05981  |     1.09001
   27 C                |  21 C                |     2.93098  |     1.55101
   28 O                |  27 C                |     2.32224  |     1.22888
   29 N                |  27 C                |     2.51063  |     1.32857
   30 H                |  29 N                |     1.89675  |     1.00372
   31 H                |  29 N                |     1.91987  |     1.01595
 ------------------------------------------------------------------------------
                         number of included internuclear distances:         30
 ==============================================================================



 ==============================================================================
                                 internuclear angles
 ------------------------------------------------------------------------------
        center 1       |       center 2       |       center 3       |  degrees
 ------------------------------------------------------------------------------
    1 H                |   2 C                |   3 H                |   110.00
    1 H                |   2 C                |   4 H                |   110.12
    1 H                |   2 C                |   5 C                |   108.98
    3 H                |   2 C                |   4 H                |   109.80
    3 H                |   2 C                |   5 C                |   108.91
    4 H                |   2 C                |   5 C                |   109.02
    2 C                |   5 C                |   6 O                |   120.11
    2 C                |   5 C                |   7 N                |   115.89
    6 O                |   5 C                |   7 N                |   124.00
    5 C                |   7 N                |   8 H                |   118.97
    5 C                |   7 N                |   9 C                |   125.76
    8 H                |   7 N                |   9 C                |   114.83
    7 N                |   9 C                |  10 H                |   109.80
    7 N                |   9 C                |  11 C                |   108.41
    7 N                |   9 C                |  17 C                |   112.63
   10 H                |   9 C                |  11 C                |   109.23
   10 H                |   9 C                |  17 C                |   108.21
   11 C                |   9 C                |  17 C                |   108.51
    9 C                |  11 C                |  12 H                |   108.59
    9 C                |  11 C                |  13 H                |   109.13
    9 C                |  11 C                |  14 C                |   112.75
   12 H                |  11 C                |  13 H                |   107.77
   12 H                |  11 C                |  14 C                |   109.50
   13 H                |  11 C                |  14 C                |   108.98
   11 C                |  14 C                |  15 O                |   117.35
   11 C                |  14 C                |  16 O                |   118.22
   15 O                |  14 C                |  16 O                |   124.11
    9 C                |  17 C                |  18 O                |   120.26
    9 C                |  17 C                |  19 N                |   116.85
   18 O                |  17 C                |  19 N                |   122.89
   17 C                |  19 N                |  20 H                |   115.28
   17 C                |  19 N                |  21 C                |   126.22
   20 H                |  19 N                |  21 C                |   117.07
   19 N                |  21 C                |  22 H                |   105.68
   19 N                |  21 C                |  23 C                |   109.79
   19 N                |  21 C                |  27 C                |   115.09
   22 H                |  21 C                |  23 C                |   106.46
   22 H                |  21 C                |  27 C                |   104.57
   23 C                |  21 C                |  27 C                |   114.37
   21 C                |  23 C                |  24 H                |   109.69
   21 C                |  23 C                |  25 H                |   109.95
   21 C                |  23 C                |  26 H                |   109.82
   24 H                |  23 C                |  25 H                |   109.15
   24 H                |  23 C                |  26 H                |   108.89
   25 H                |  23 C                |  26 H                |   109.31
   21 C                |  27 C                |  28 O                |   120.90
   21 C                |  27 C                |  29 N                |   119.50
   28 O                |  27 C                |  29 N                |   119.57
   27 C                |  29 N                |  30 H                |   118.68
   27 C                |  29 N                |  31 H                |   121.23
   30 H                |  29 N                |  31 H                |   120.08
 ------------------------------------------------------------------------------
                            number of included internuclear angles:         51
 ==============================================================================



  library name resolved from: environment
  library file name is: </opt/rit/el9/20230413/app/linux-rhel9-x86_64_v3/gcc-11.2.1/nwchem-7.2.0-oxtctbuhfuzyfaoziquq6bki22grib3g/share/nwchem/libraries/>
  


 Summary of "ao basis" -> "" (cartesian)
 ------------------------------------------------------------------------------
       Tag                 Description            Shells   Functions and Types
 ---------------- ------------------------------  ------  ---------------------
 *                        aug-cc-pvdz                 on all atoms 


                      Basis "ao basis" -> "ao basis" (cartesian)
                      -----
  H (Hydrogen)
  ------------
            Exponent  Coefficients 
       -------------- ---------------------------------------------------------
  1 S  1.30100000E+01  0.019685
  1 S  1.96200000E+00  0.137977
  1 S  4.44600000E-01  0.478148

  2 S  1.22000000E-01  1.000000

  3 S  2.97400000E-02  1.000000

  4 P  7.27000000E-01  1.000000

  5 P  1.41000000E-01  1.000000

  C (Carbon)
  ----------
            Exponent  Coefficients 
       -------------- ---------------------------------------------------------
  1 S  6.66500000E+03  0.000692
  1 S  1.00000000E+03  0.005329
  1 S  2.28000000E+02  0.027077
  1 S  6.47100000E+01  0.101718
  1 S  2.10600000E+01  0.274740
  1 S  7.49500000E+00  0.448564
  1 S  2.79700000E+00  0.285074
  1 S  5.21500000E-01  0.015204

  2 S  6.66500000E+03 -0.000146
  2 S  1.00000000E+03 -0.001154
  2 S  2.28000000E+02 -0.005725
  2 S  6.47100000E+01 -0.023312
  2 S  2.10600000E+01 -0.063955
  2 S  7.49500000E+00 -0.149981
  2 S  2.79700000E+00 -0.127262
  2 S  5.21500000E-01  0.544529

  3 S  1.59600000E-01  1.000000

  4 S  4.69000000E-02  1.000000

  5 P  9.43900000E+00  0.038109
  5 P  2.00200000E+00  0.209480
  5 P  5.45600000E-01  0.508557

  6 P  1.51700000E-01  1.000000

  7 P  4.04100000E-02  1.000000

  8 D  5.50000000E-01  1.000000

  9 D  1.51000000E-01  1.000000

  O (Oxygen)
  ----------
            Exponent  Coefficients 
       -------------- ---------------------------------------------------------
  1 S  1.17200000E+04  0.000710
  1 S  1.75900000E+03  0.005470
  1 S  4.00800000E+02  0.027837
  1 S  1.13700000E+02  0.104800
  1 S  3.70300000E+01  0.283062
  1 S  1.32700000E+01  0.448719
  1 S  5.02500000E+00  0.270952
  1 S  1.01300000E+00  0.015458

  2 S  1.17200000E+04 -0.000160
  2 S  1.75900000E+03 -0.001263
  2 S  4.00800000E+02 -0.006267
  2 S  1.13700000E+02 -0.025716
  2 S  3.70300000E+01 -0.070924
  2 S  1.32700000E+01 -0.165411
  2 S  5.02500000E+00 -0.116955
  2 S  1.01300000E+00  0.557368

  3 S  3.02300000E-01  1.000000

  4 S  7.89600000E-02  1.000000

  5 P  1.77000000E+01  0.043018
  5 P  3.85400000E+00  0.228913
  5 P  1.04600000E+00  0.508728

  6 P  2.75300000E-01  1.000000

  7 P  6.85600000E-02  1.000000

  8 D  1.18500000E+00  1.000000

  9 D  3.32000000E-01  1.000000

  N (Nitrogen)
  ------------
            Exponent  Coefficients 
       -------------- ---------------------------------------------------------
  1 S  9.04600000E+03  0.000700
  1 S  1.35700000E+03  0.005389
  1 S  3.09300000E+02  0.027406
  1 S  8.77300000E+01  0.103207
  1 S  2.85600000E+01  0.278723
  1 S  1.02100000E+01  0.448540
  1 S  3.83800000E+00  0.278238
  1 S  7.46600000E-01  0.015440

  2 S  9.04600000E+03 -0.000153
  2 S  1.35700000E+03 -0.001208
  2 S  3.09300000E+02 -0.005992
  2 S  8.77300000E+01 -0.024544
  2 S  2.85600000E+01 -0.067459
  2 S  1.02100000E+01 -0.158078
  2 S  3.83800000E+00 -0.121831
  2 S  7.46600000E-01  0.549003

  3 S  2.24800000E-01  1.000000

  4 S  6.12400000E-02  1.000000

  5 P  1.35500000E+01  0.039919
  5 P  2.91700000E+00  0.217169
  5 P  7.97300000E-01  0.510319

  6 P  2.18500000E-01  1.000000

  7 P  5.61100000E-02  1.000000

  8 D  8.17000000E-01  1.000000

  9 D  2.30000000E-01  1.000000



 Summary of "ao basis" -> "ao basis" (cartesian)
 ------------------------------------------------------------------------------
       Tag                 Description            Shells   Functions and Types
 ---------------- ------------------------------  ------  ---------------------
 H                        aug-cc-pvdz                5        9   3s2p
 C                        aug-cc-pvdz                9       25   4s3p2d
 O                        aug-cc-pvdz                9       25   4s3p2d
 N                        aug-cc-pvdz                9       25   4s3p2d


 ------------------------------------------------------------------------
 scf: no. of closed-shell electrons is not even!                   0
 ------------------------------------------------------------------------
 ------------------------------------------------------------------------
  current input line : 
 scf: no. of closed-shell electrons is not even!                   0
 ------------------------------------------------------------------------
 ------------------------------------------------------------------------
  current input line : 
     0: 
 ------------------------------------------------------------------------
 scf: no. of closed-shell electrons is not even!                   0
 ------------------------------------------------------------------------
 ------------------------------------------------------------------------
  current input line : 
     0: 
 ------------------------------------------------------------------------
 ------------------------------------------------------------------------
 There is an error in the input file
 scf: no. of closed-shell electrons is not even!                   0
 ------------------------------------------------------------------------
 ------------------------------------------------------------------------
  current input line : 
     0: 
 ------------------------------------------------------------------------
 ------------------------------------------------------------------------
 There is an error in the input file
 ------------------------------------------------------------------------
 For more information see the NWChem manual at https://nwchemgit.github.io


 For further details see manual section:                                                                                                                                                                                                                                                                
 scf: no. of closed-shell electrons is not even!                   0
 ------------------------------------------------------------------------
 ------------------------------------------------------------------------
  current input line : 
     0: 
 ------------------------------------------------------------------------
 ------------------------------------------------------------------------
 There is an error in the input file
 ------------------------------------------------------------------------
 For more information see the NWChem manual at https://nwchemgit.github.io


 For further details see manual section:                                                                                                                                                                                                                                                                
 scf: no. of closed-shell electrons is not even!                   0
 ------------------------------------------------------------------------
 ------------------------------------------------------------------------
  current input line : 
     0: 
 ------------------------------------------------------------------------
 ------------------------------------------------------------------------
 There is an error in the input file
 ------------------------------------------------------------------------
 For more information see the NWChem manual at https://nwchemgit.github.io


 For further details see manual section:                                                                                                                                                                                                                                                                
 scf: no. of closed-shell electrons is not even!                   0
 ------------------------------------------------------------------------
 ------------------------------------------------------------------------
  current input line : 
     0: 
 ------------------------------------------------------------------------
 ------------------------------------------------------------------------
 There is an error in the input file
 ------------------------------------------------------------------------
 For more information see the NWChem manual at https://nwchemgit.github.io


 For further details see manual section:                                                                                                                                                                                                                                                                
     0: 
 ------------------------------------------------------------------------
 ------------------------------------------------------------------------
 There is an error in the input file
 ------------------------------------------------------------------------
 For more information see the NWChem manual at https://nwchemgit.github.io


 For further details see manual section:                                                                                                                                                                                                                                                                
1:scf: no. of closed-shell electrons is not even!:Received an Error in Communication
 ------------------------------------------------------------------------
 There is an error in the input file
 ------------------------------------------------------------------------
 For more information see the NWChem manual at https://nwchemgit.github.io


 For further details see manual section:                                                                                                                                                                                                                                                                
2:scf: no. of closed-shell electrons is not even!:Received an Error in Communication
 ------------------------------------------------------------------------
 For more information see the NWChem manual at https://nwchemgit.github.io


 For further details see manual section:                                                                                                                                                                                                                                                                
3:scf: no. of closed-shell electrons is not even!:Received an Error in Communication
4:scf: no. of closed-shell electrons is not even!:Received an Error in Communication
5:scf: no. of closed-shell electrons is not even!:Received an Error in Communication
6:scf: no. of closed-shell electrons is not even!:Received an Error in Communication
7:scf: no. of closed-shell electrons is not even!:Received an Error in Communication
 scf: no. of closed-shell electrons is not even!                   0
 ------------------------------------------------------------------------
 ------------------------------------------------------------------------
  current input line : 
    46: task scf energy
 ------------------------------------------------------------------------
 ------------------------------------------------------------------------
 There is an error in the input file
 ------------------------------------------------------------------------
 For more information see the NWChem manual at https://nwchemgit.github.io


 For further details see manual section:                                                                                                                                                                                                                                                                
0:scf: no. of closed-shell electrons is not even!:Received an Error in Communication
--------------------------------------------------------------------------
MPI_ABORT was invoked on rank 4 in communicator MPI COMMUNICATOR 3 DUP FROM 0
with errorcode -1.

NOTE: invoking MPI_ABORT causes Open MPI to kill all MPI processes.
You may or may not see output from other processes, depending on
exactly when Open MPI kills them.
--------------------------------------------------------------------------
--------------------------------------------------------------------------
MPI_ABORT was invoked on rank 5 in communicator MPI COMMUNICATOR 3 DUP FROM 0
with errorcode -1.

NOTE: invoking MPI_ABORT causes Open MPI to kill all MPI processes.
You may or may not see output from other processes, depending on
exactly when Open MPI kills them.
--------------------------------------------------------------------------
--------------------------------------------------------------------------
MPI_ABORT was invoked on rank 6 in communicator MPI COMMUNICATOR 3 DUP FROM 0
with errorcode -1.

NOTE: invoking MPI_ABORT causes Open MPI to kill all MPI processes.
You may or may not see output from other processes, depending on
exactly when Open MPI kills them.
--------------------------------------------------------------------------
--------------------------------------------------------------------------
MPI_ABORT was invoked on rank 3 in communicator MPI COMMUNICATOR 3 DUP FROM 0
with errorcode -1.

NOTE: invoking MPI_ABORT causes Open MPI to kill all MPI processes.
You may or may not see output from other processes, depending on
exactly when Open MPI kills them.
--------------------------------------------------------------------------
--------------------------------------------------------------------------
MPI_ABORT was invoked on rank 1 in communicator MPI COMMUNICATOR 3 DUP FROM 0
with errorcode -1.

NOTE: invoking MPI_ABORT causes Open MPI to kill all MPI processes.
You may or may not see output from other processes, depending on
exactly when Open MPI kills them.
--------------------------------------------------------------------------
--------------------------------------------------------------------------
MPI_ABORT was invoked on rank 2 in communicator MPI COMMUNICATOR 3 DUP FROM 0
with errorcode -1.

NOTE: invoking MPI_ABORT causes Open MPI to kill all MPI processes.
You may or may not see output from other processes, depending on
exactly when Open MPI kills them.
--------------------------------------------------------------------------
--------------------------------------------------------------------------
MPI_ABORT was invoked on rank 0 in communicator MPI COMMUNICATOR 3 DUP FROM 0
with errorcode -1.

NOTE: invoking MPI_ABORT causes Open MPI to kill all MPI processes.
You may or may not see output from other processes, depending on
exactly when Open MPI kills them.
--------------------------------------------------------------------------
--------------------------------------------------------------------------
MPI_ABORT was invoked on rank 7 in communicator MPI COMMUNICATOR 3 DUP FROM 0
with errorcode -1.

NOTE: invoking MPI_ABORT causes Open MPI to kill all MPI processes.
You may or may not see output from other processes, depending on
exactly when Open MPI kills them.
--------------------------------------------------------------------------
slurmstepd: error: *** STEP 6619389.80 ON nova21-swift-1 CANCELLED AT 2025-07-10T11:10:15 ***
srun: Job step aborted: Waiting up to 32 seconds for job step to finish.
slurmstepd: error: --task-epilog failed status=9
srun: error: nova21-swift-1: tasks 0-7: Killed
