export TMOUT=5400
export TMPDIR=/tmp
export PTMPDIR=/tmp/ptmp
 argument  1 = inputs/GLN_CYS_3.nw



============================== echo of input deck ==============================
start GLN_CYS_3
geometry
H          5.92800        1.58300       -5.69400
C          6.58700        2.20400       -5.09000
H          7.29100        1.57500       -4.54900
H          5.99700        2.78700       -4.38400
C          7.35300        3.14200       -5.99100
O          8.57800        3.10200       -6.03200
N          6.63300        3.99900       -6.71300
H          5.62600        3.99400       -6.60100
C          7.22500        5.00600       -7.60000
H          7.80500        4.46500       -8.35000
C          6.12000        5.77600       -8.35600
H          6.59300        6.33900       -9.16200
H          5.45000        5.05000       -8.82000
C          5.27400        6.76300       -7.52900
H          5.89200        7.60800       -7.22600
H          4.47900        7.15800       -8.16100
C          4.63100        6.13000       -6.29800
O          3.84000        5.20600       -6.38600
N          5.00000        6.53400       -5.10600
H          5.83300        7.10100       -5.02400
H          4.57700        6.07800       -4.32000
C          8.19500        5.93300       -6.84000
O          7.82500        6.56500       -5.84900
N          9.44500        5.99900       -7.30800
H          9.66500        5.46500       -8.13200
C         10.55200        6.73200       -6.67300
H         11.45400        6.47900       -7.23000
C         10.35000        8.24800       -6.84000
H          9.46700        8.56000       -6.28000
H         11.21800        8.77100       -6.43400
S         10.15100        8.67500       -8.59800
H         10.04300        9.99900       -8.43000
C         10.86800        6.31800       -5.21500
O         11.55200        7.04200       -4.50100
N         10.41600        5.16100       -4.74300
H         10.63000        4.91900       -3.79100
H          9.84000        4.55800       -5.31600
end

basis
 * library aug-cc-pvdz
end

echo

scf
 direct
end

task scf energy
================================================================================


                                         
                                         


             Northwest Computational Chemistry Package (NWChem) 7.2.0
             --------------------------------------------------------


                    Environmental Molecular Sciences Laboratory
                       Pacific Northwest National Laboratory
                                Richland, WA 99352

                              Copyright (c) 1994-2022
                       Pacific Northwest National Laboratory
                            Battelle Memorial Institute

             NWChem is an open-source computational chemistry package
                        distributed under the terms of the
                      Educational Community License (ECL) 2.0
             A copy of the license is included with this distribution
                              in the LICENSE.TXT file

                                  ACKNOWLEDGMENT
                                  --------------

            This software and its documentation were developed at the
            EMSL at Pacific Northwest National Laboratory, a multiprogram
            national laboratory, operated for the U.S. Department of Energy
            by Battelle under Contract Number DE-AC05-76RL01830. Support
            for this work was provided by the Department of Energy Office
            of Biological and Environmental Research, Office of Basic
            Energy Sciences, and the Office of Advanced Scientific Computing.


           Job information
           ---------------

    hostname        = nova18-33
    program         = /opt/rit/el9/20230413/app/linux-rhel9-x86_64_v3/gcc-11.2.1/nwchem-7.2.0-oxtctbuhfuzyfaoziquq6bki22grib3g/bin/nwchem
    date            = Thu Jul  3 13:38:33 2025

    compiled        = Wed_May_17_23:46:39_2023
    source          = /tmp/root/spack-stage/spack-stage-nwchem-7.2.0-oxtctbuhfuzyfaoziquq6bki22grib3g/spack-src
    nwchem branch   = 7.2.0
    nwchem revision = d0d141fd
    ga revision     = 5.8.0
    use scalapack   = T
    input           = inputs/GLN_CYS_3.nw
    prefix          = GLN_CYS_3.
    data base       = ./GLN_CYS_3.db
    status          = startup
    nproc           =        1
    time left       =     -1s



           Memory information
           ------------------

    heap     =   26214398 doubles =    200.0 Mbytes
    stack    =   26214395 doubles =    200.0 Mbytes
    global   =   52428800 doubles =    400.0 Mbytes (distinct from heap & stack)
    total    =  104857593 doubles =    800.0 Mbytes
    verify   = yes
    hardfail = no 


           Directory information
           ---------------------

  0 permanent = .
  0 scratch   = .




                                NWChem Input Module
                                -------------------



 Scaling coordinates for geometry "geometry" by  1.889725989
 (inverse scale =  0.529177249)

 C1  symmetry detected

          ------
          auto-z
          ------
  no constraints, skipping    0.0000000000000000     
  no constraints, skipping    0.0000000000000000     


                             Geometry "geometry" -> ""
                             -------------------------

 Output coordinates in angstroms (scale by  1.889725989 to convert to a.u.)

  No.       Tag          Charge          X              Y              Z
 ---- ---------------- ---------- -------------- -------------- --------------
    1 H                    1.0000     2.57374759    -3.97753800    -1.08314825
    2 C                    6.0000     2.75432348    -3.15071534    -0.39868157
    3 H                    1.0000     3.80844697    -2.88161613    -0.41731741
    4 H                    1.0000     2.46655937    -3.44043671     0.61110967
    5 C                    6.0000     1.93212784    -1.95958851    -0.82718153
    6 O                    8.0000     2.47872819    -0.90634841    -1.13672855
    7 N                    7.0000     0.60974453    -2.11863609    -0.83898094
    8 H                    1.0000     0.23024089    -3.00883669    -0.53875122
    9 C                    6.0000    -0.33060209    -1.04726302    -1.18421995
   10 H                    1.0000    -0.10120746    -0.74258770    -2.20702592
   11 C                    6.0000    -1.77971524    -1.58159490    -1.18886063
   12 H                    1.0000    -2.41270079    -0.83427294    -1.66966534
   13 H                    1.0000    -1.81381570    -2.47958338    -1.80831673
   14 C                    6.0000    -2.40122478    -1.90973011     0.18222185
   15 H                    1.0000    -2.56286042    -0.98717555     0.73946954
   16 H                    1.0000    -3.37910565    -2.36379724     0.02396244
   17 C                    6.0000    -1.56062639    -2.87254447     1.01641720
   18 O                    8.0000    -1.30138752    -4.00104408     0.63368382
   19 N                    7.0000    -1.03162070    -2.44955698     2.13957149
   20 H                    1.0000    -1.02193801    -1.45584271     2.32542138
   21 H                    1.0000    -0.46355893    -3.10013619     2.64821038
   22 C                    6.0000    -0.14471402     0.18612708    -0.27756484
   23 O                    8.0000    -0.21401953     0.08964351     0.94893125
   24 N                    7.0000     0.10360221     1.34578498    -0.89352961
   25 H                    1.0000     0.12858697     1.34540782    -1.89946580
   26 C                    6.0000     0.41930433     2.61515832    -0.21900274
   27 H                    1.0000     0.69193228     3.32442752    -1.00033059
   28 C                    6.0000    -0.83858630     3.18200635     0.46169063
   29 H                    1.0000    -1.14310830     2.51749840     1.27183170
   30 H                    1.0000    -0.60463850     4.15962553     0.88750533
   31 S                   16.0000    -2.19321635     3.35205897    -0.74186807
   32 H                    1.0000    -3.08961035     3.88217642     0.09974781
   33 C                    6.0000     1.65193319     2.57706479     0.71704799
   34 O                    8.0000     1.83063441     3.46666757     1.54075957
   35 N                    7.0000     2.53323190     1.58826815     0.61060186
   36 H                    1.0000     3.32133620     1.58372663     1.23472923
   37 H                    1.0000     2.39348537     0.84012715    -0.05608394

      Atomic Mass 
      ----------- 

      H                  1.007825
      C                 12.000000
      O                 15.994910
      N                 14.003070
      S                 31.972070


 Effective nuclear repulsion energy (a.u.)    1724.4251590493

            Nuclear Dipole moment (a.u.) 
            ----------------------------
        X                 Y               Z
 ---------------- ---------------- ----------------
     0.0000000000    -0.0000000000     0.0000000000



                                Z-matrix (autoz)
                                -------- 

 Units are Angstrom for bonds and degrees for angles

      Type          Name      I     J     K     L     M      Value
      ----------- --------  ----- ----- ----- ----- ----- ----------
    1 Stretch                  1     2                       1.08846
    2 Stretch                  2     3                       1.08809
    3 Stretch                  2     4                       1.08923
    4 Stretch                  2     5                       1.50944
    5 Stretch                  5     6                       1.22634
    6 Stretch                  5     7                       1.33197
    7 Stretch                  7     8                       1.01322
    8 Stretch                  7     9                       1.46672
    9 Stretch                  9    10                       1.09160
   10 Stretch                  9    11                       1.54449
   11 Stretch                  9    22                       1.54202
   12 Stretch                 11    12                       1.09102
   13 Stretch                 11    13                       1.09145
   14 Stretch                 11    14                       1.54072
   15 Stretch                 14    15                       1.08984
   16 Stretch                 14    16                       1.08971
   17 Stretch                 14    17                       1.52627
   18 Stretch                 17    18                       1.21951
   19 Stretch                 17    19                       1.31158
   20 Stretch                 19    20                       1.01099
   21 Stretch                 19    21                       1.00233
   22 Stretch                 22    23                       1.23224
   23 Stretch                 22    24                       1.33637
   24 Stretch                 24    25                       1.00625
   25 Stretch                 24    26                       1.47172
   26 Stretch                 26    27                       1.08989
   27 Stretch                 26    28                       1.53849
   28 Stretch                 26    33                       1.54823
   29 Stretch                 28    29                       1.09116
   30 Stretch                 28    30                       1.09169
   31 Stretch                 28    31                       1.82003
   32 Stretch                 31    32                       1.33898
   33 Stretch                 33    34                       1.22549
   34 Stretch                 33    35                       1.32881
   35 Stretch                 35    36                       1.00532
   36 Stretch                 35    37                       1.01179
   37 Bend                     1     2     3               109.74401
   38 Bend                     1     2     4               109.70016
   39 Bend                     1     2     5               109.30248
   40 Bend                     2     5     6               120.43810
   41 Bend                     2     5     7               116.68417
   42 Bend                     3     2     4               109.73092
   43 Bend                     3     2     5               109.12790
   44 Bend                     4     2     5               109.21822
   45 Bend                     5     7     8               118.30350
   46 Bend                     5     7     9               123.46110
   47 Bend                     6     5     7               122.87638
   48 Bend                     7     9    10               106.83973
   49 Bend                     7     9    11               110.45844
   50 Bend                     7     9    22               111.62763
   51 Bend                     8     7     9               118.12378
   52 Bend                     9    11    12               107.98079
   53 Bend                     9    11    13               108.40038
   54 Bend                     9    11    14               116.71064
   55 Bend                     9    22    23               121.05218
   56 Bend                     9    22    24               116.45399
   57 Bend                    10     9    11               106.91268
   58 Bend                    10     9    22               107.59782
   59 Bend                    11     9    22               113.05328
   60 Bend                    11    14    15               109.54558
   61 Bend                    11    14    16               108.75336
   62 Bend                    11    14    17               113.48844
   63 Bend                    12    11    13               107.17653
   64 Bend                    12    11    14               107.69897
   65 Bend                    13    11    14               108.49580
   66 Bend                    14    17    18               121.95786
   67 Bend                    14    17    19               119.12605
   68 Bend                    15    14    16               107.09112
   69 Bend                    15    14    17               109.64673
   70 Bend                    16    14    17               108.10458
   71 Bend                    17    19    20               118.57275
   72 Bend                    17    19    21               116.98876
   73 Bend                    18    17    19               118.78015
   74 Bend                    20    19    21               122.63349
   75 Bend                    22    24    25               117.71480
   76 Bend                    22    24    26               125.24433
   77 Bend                    23    22    24               122.49149
   78 Bend                    24    26    27               106.64181
   79 Bend                    24    26    28               110.19287
   80 Bend                    24    26    33               115.25602
   81 Bend                    25    24    26               116.94795
   82 Bend                    26    28    29               109.40817
   83 Bend                    26    28    30               109.10540
   84 Bend                    26    28    31               110.51101
   85 Bend                    26    33    34               120.30555
   86 Bend                    26    33    35               119.86149
   87 Bend                    27    26    28               106.37532
   88 Bend                    27    26    33               104.49440
   89 Bend                    28    26    33               113.11100
   90 Bend                    28    31    32                96.86982
   91 Bend                    29    28    30               108.39511
   92 Bend                    29    28    31               109.88665
   93 Bend                    30    28    31               109.49744
   94 Bend                    33    35    36               118.26525
   95 Bend                    33    35    37               120.75728
   96 Bend                    34    33    35               119.82162
   97 Bend                    36    35    37               120.93127
   98 Torsion                  1     2     5     6        -119.45711
   99 Torsion                  1     2     5     7          60.95323
  100 Torsion                  2     5     7     8           1.70102
  101 Torsion                  2     5     7     9         177.78251
  102 Torsion                  3     2     5     6           0.56471
  103 Torsion                  3     2     5     7        -179.02495
  104 Torsion                  4     2     5     6         120.51986
  105 Torsion                  4     2     5     7         -59.06981
  106 Torsion                  5     7     9    10          60.48367
  107 Torsion                  5     7     9    11         176.41697
  108 Torsion                  5     7     9    22         -56.89102
  109 Torsion                  6     5     7     8        -177.87773
  110 Torsion                  6     5     7     9          -1.79624
  111 Torsion                  7     9    11    12        -166.94521
  112 Torsion                  7     9    11    13         -51.14879
  113 Torsion                  7     9    11    14          71.64767
  114 Torsion                  7     9    22    23         -55.98235
  115 Torsion                  7     9    22    24         123.47351
  116 Torsion                  8     7     9    10        -123.42825
  117 Torsion                  8     7     9    11          -7.49494
  118 Torsion                  8     7     9    22         119.19707
  119 Torsion                  9    11    14    15          68.71254
  120 Torsion                  9    11    14    16        -174.55135
  121 Torsion                  9    11    14    17         -54.19545
  122 Torsion                  9    22    24    25           1.59914
  123 Torsion                  9    22    24    26        -174.77783
  124 Torsion                 10     9    11    12         -51.05747
  125 Torsion                 10     9    11    13          64.73896
  126 Torsion                 10     9    11    14        -172.46458
  127 Torsion                 10     9    22    23        -172.89882
  128 Torsion                 10     9    22    24           6.55705
  129 Torsion                 11     9    22    23          69.28308
  130 Torsion                 11     9    22    24        -111.26106
  131 Torsion                 11    14    17    18         -60.85954
  132 Torsion                 11    14    17    19         114.84890
  133 Torsion                 12    11     9    22          67.16057
  134 Torsion                 12    11    14    15         -52.84269
  135 Torsion                 12    11    14    16          63.89342
  136 Torsion                 12    11    14    17        -175.75068
  137 Torsion                 13    11     9    22        -177.04300
  138 Torsion                 13    11    14    15        -168.54044
  139 Torsion                 13    11    14    16         -51.80433
  140 Torsion                 13    11    14    17          68.55156
  141 Torsion                 14    11     9    22         -54.24654
  142 Torsion                 14    17    19    20         -13.13464
  143 Torsion                 14    17    19    21        -178.25030
  144 Torsion                 15    14    17    18         176.28817
  145 Torsion                 15    14    17    19          -8.00339
  146 Torsion                 16    14    17    18          59.86279
  147 Torsion                 16    14    17    19        -124.42877
  148 Torsion                 18    17    19    20         162.71132
  149 Torsion                 18    17    19    21          -2.40434
  150 Torsion                 22    24    26    27         172.82610
  151 Torsion                 22    24    26    28         -72.12080
  152 Torsion                 22    24    26    33          57.36810
  153 Torsion                 23    22    24    25        -178.95353
  154 Torsion                 23    22    24    26           4.66950
  155 Torsion                 24    26    28    29          66.03560
  156 Torsion                 24    26    28    30        -175.53200
  157 Torsion                 24    26    28    31         -55.08684
  158 Torsion                 24    26    33    34        -163.88863
  159 Torsion                 24    26    33    35          17.33815
  160 Torsion                 25    24    26    27          -3.57588
  161 Torsion                 25    24    26    28         111.47722
  162 Torsion                 25    24    26    33        -119.03388
  163 Torsion                 26    28    31    32        -178.19443
  164 Torsion                 26    33    35    36        -179.58468
  165 Torsion                 26    33    35    37          -2.03396
  166 Torsion                 27    26    28    29        -178.74297
  167 Torsion                 27    26    28    30         -60.31057
  168 Torsion                 27    26    28    31          60.13459
  169 Torsion                 27    26    33    34          79.43038
  170 Torsion                 27    26    33    35         -99.34284
  171 Torsion                 28    26    33    34         -35.84244
  172 Torsion                 28    26    33    35         145.38434
  173 Torsion                 29    28    26    33         -64.59886
  174 Torsion                 29    28    31    32          60.96766
  175 Torsion                 30    28    26    33          53.83354
  176 Torsion                 30    28    31    32         -57.98396
  177 Torsion                 31    28    26    33         174.27870
  178 Torsion                 34    33    35    36           1.63611
  179 Torsion                 34    33    35    37         179.18684


            XYZ format geometry
            -------------------
    37
 geometry
 H                     2.57374759    -3.97753800    -1.08314825
 C                     2.75432348    -3.15071534    -0.39868157
 H                     3.80844697    -2.88161613    -0.41731741
 H                     2.46655937    -3.44043671     0.61110967
 C                     1.93212784    -1.95958851    -0.82718153
 O                     2.47872819    -0.90634841    -1.13672855
 N                     0.60974453    -2.11863609    -0.83898094
 H                     0.23024089    -3.00883669    -0.53875122
 C                    -0.33060209    -1.04726302    -1.18421995
 H                    -0.10120746    -0.74258770    -2.20702592
 C                    -1.77971524    -1.58159490    -1.18886063
 H                    -2.41270079    -0.83427294    -1.66966534
 H                    -1.81381570    -2.47958338    -1.80831673
 C                    -2.40122478    -1.90973011     0.18222185
 H                    -2.56286042    -0.98717555     0.73946954
 H                    -3.37910565    -2.36379724     0.02396244
 C                    -1.56062639    -2.87254447     1.01641720
 O                    -1.30138752    -4.00104408     0.63368382
 N                    -1.03162070    -2.44955698     2.13957149
 H                    -1.02193801    -1.45584271     2.32542138
 H                    -0.46355893    -3.10013619     2.64821038
 C                    -0.14471402     0.18612708    -0.27756484
 O                    -0.21401953     0.08964351     0.94893125
 N                     0.10360221     1.34578498    -0.89352961
 H                     0.12858697     1.34540782    -1.89946580
 C                     0.41930433     2.61515832    -0.21900274
 H                     0.69193228     3.32442752    -1.00033059
 C                    -0.83858630     3.18200635     0.46169063
 H                    -1.14310830     2.51749840     1.27183170
 H                    -0.60463850     4.15962553     0.88750533
 S                    -2.19321635     3.35205897    -0.74186807
 H                    -3.08961035     3.88217642     0.09974781
 C                     1.65193319     2.57706479     0.71704799
 O                     1.83063441     3.46666757     1.54075957
 N                     2.53323190     1.58826815     0.61060186
 H                     3.32133620     1.58372663     1.23472923
 H                     2.39348537     0.84012715    -0.05608394

 ==============================================================================
                                internuclear distances
 ------------------------------------------------------------------------------
       center one      |      center two      | atomic units |  angstroms
 ------------------------------------------------------------------------------
    2 C                |   1 H                |     2.05688  |     1.08846
    3 H                |   2 C                |     2.05619  |     1.08809
    4 H                |   2 C                |     2.05835  |     1.08923
    5 C                |   2 C                |     2.85242  |     1.50944
    6 O                |   5 C                |     2.31744  |     1.22634
    7 N                |   5 C                |     2.51705  |     1.33197
    8 H                |   7 N                |     1.91471  |     1.01322
    9 C                |   7 N                |     2.77171  |     1.46672
   10 H                |   9 C                |     2.06282  |     1.09160
   11 C                |   9 C                |     2.91867  |     1.54449
   12 H                |  11 C                |     2.06174  |     1.09102
   13 H                |  11 C                |     2.06255  |     1.09145
   14 C                |  11 C                |     2.91154  |     1.54072
   15 H                |  14 C                |     2.05950  |     1.08984
   16 H                |  14 C                |     2.05926  |     1.08971
   17 C                |  14 C                |     2.88423  |     1.52627
   18 O                |  17 C                |     2.30454  |     1.21951
   19 N                |  17 C                |     2.47853  |     1.31158
   20 H                |  19 N                |     1.91050  |     1.01099
   21 H                |  19 N                |     1.89412  |     1.00233
   22 C                |   9 C                |     2.91400  |     1.54202
   23 O                |  22 C                |     2.32859  |     1.23224
   24 N                |  22 C                |     2.52537  |     1.33637
   25 H                |  24 N                |     1.90153  |     1.00625
   26 C                |  24 N                |     2.78115  |     1.47172
   27 H                |  26 C                |     2.05960  |     1.08989
   28 C                |  26 C                |     2.90732  |     1.53849
   29 H                |  28 C                |     2.06200  |     1.09116
   30 H                |  28 C                |     2.06300  |     1.09169
   31 S                |  28 C                |     3.43935  |     1.82003
   32 H                |  31 S                |     2.53030  |     1.33898
   33 C                |  26 C                |     2.92573  |     1.54823
   34 O                |  33 C                |     2.31584  |     1.22549
   35 N                |  33 C                |     2.51109  |     1.32881
   36 H                |  35 N                |     1.89978  |     1.00532
   37 H                |  35 N                |     1.91200  |     1.01179
 ------------------------------------------------------------------------------
                         number of included internuclear distances:         36
 ==============================================================================



 ==============================================================================
                                 internuclear angles
 ------------------------------------------------------------------------------
        center 1       |       center 2       |       center 3       |  degrees
 ------------------------------------------------------------------------------
    1 H                |   2 C                |   3 H                |   109.74
    1 H                |   2 C                |   4 H                |   109.70
    1 H                |   2 C                |   5 C                |   109.30
    3 H                |   2 C                |   4 H                |   109.73
    3 H                |   2 C                |   5 C                |   109.13
    4 H                |   2 C                |   5 C                |   109.22
    2 C                |   5 C                |   6 O                |   120.44
    2 C                |   5 C                |   7 N                |   116.68
    6 O                |   5 C                |   7 N                |   122.88
    5 C                |   7 N                |   8 H                |   118.30
    5 C                |   7 N                |   9 C                |   123.46
    8 H                |   7 N                |   9 C                |   118.12
    7 N                |   9 C                |  10 H                |   106.84
    7 N                |   9 C                |  11 C                |   110.46
    7 N                |   9 C                |  22 C                |   111.63
   10 H                |   9 C                |  11 C                |   106.91
   10 H                |   9 C                |  22 C                |   107.60
   11 C                |   9 C                |  22 C                |   113.05
    9 C                |  11 C                |  12 H                |   107.98
    9 C                |  11 C                |  13 H                |   108.40
    9 C                |  11 C                |  14 C                |   116.71
   12 H                |  11 C                |  13 H                |   107.18
   12 H                |  11 C                |  14 C                |   107.70
   13 H                |  11 C                |  14 C                |   108.50
   11 C                |  14 C                |  15 H                |   109.55
   11 C                |  14 C                |  16 H                |   108.75
   11 C                |  14 C                |  17 C                |   113.49
   15 H                |  14 C                |  16 H                |   107.09
   15 H                |  14 C                |  17 C                |   109.65
   16 H                |  14 C                |  17 C                |   108.10
   14 C                |  17 C                |  18 O                |   121.96
   14 C                |  17 C                |  19 N                |   119.13
   18 O                |  17 C                |  19 N                |   118.78
   17 C                |  19 N                |  20 H                |   118.57
   17 C                |  19 N                |  21 H                |   116.99
   20 H                |  19 N                |  21 H                |   122.63
    9 C                |  22 C                |  23 O                |   121.05
    9 C                |  22 C                |  24 N                |   116.45
   23 O                |  22 C                |  24 N                |   122.49
   22 C                |  24 N                |  25 H                |   117.71
   22 C                |  24 N                |  26 C                |   125.24
   25 H                |  24 N                |  26 C                |   116.95
   24 N                |  26 C                |  27 H                |   106.64
   24 N                |  26 C                |  28 C                |   110.19
   24 N                |  26 C                |  33 C                |   115.26
   27 H                |  26 C                |  28 C                |   106.38
   27 H                |  26 C                |  33 C                |   104.49
   28 C                |  26 C                |  33 C                |   113.11
   26 C                |  28 C                |  29 H                |   109.41
   26 C                |  28 C                |  30 H                |   109.11
   26 C                |  28 C                |  31 S                |   110.51
   29 H                |  28 C                |  30 H                |   108.40
   29 H                |  28 C                |  31 S                |   109.89
   30 H                |  28 C                |  31 S                |   109.50
   28 C                |  31 S                |  32 H                |    96.87
   26 C                |  33 C                |  34 O                |   120.31
   26 C                |  33 C                |  35 N                |   119.86
   34 O                |  33 C                |  35 N                |   119.82
   33 C                |  35 N                |  36 H                |   118.27
   33 C                |  35 N                |  37 H                |   120.76
   36 H                |  35 N                |  37 H                |   120.93
 ------------------------------------------------------------------------------
                            number of included internuclear angles:         61
 ==============================================================================



  library name resolved from: environment
  library file name is: </opt/rit/el9/20230413/app/linux-rhel9-x86_64_v3/gcc-11.2.1/nwchem-7.2.0-oxtctbuhfuzyfaoziquq6bki22grib3g/share/nwchem/libraries/>
  


 Summary of "ao basis" -> "" (cartesian)
 ------------------------------------------------------------------------------
       Tag                 Description            Shells   Functions and Types
 ---------------- ------------------------------  ------  ---------------------
 *                        aug-cc-pvdz                 on all atoms 


                      Basis "ao basis" -> "ao basis" (cartesian)
                      -----
  H (Hydrogen)
  ------------
            Exponent  Coefficients 
       -------------- ---------------------------------------------------------
  1 S  1.30100000E+01  0.019685
  1 S  1.96200000E+00  0.137977
  1 S  4.44600000E-01  0.478148

  2 S  1.22000000E-01  1.000000

  3 S  2.97400000E-02  1.000000

  4 P  7.27000000E-01  1.000000

  5 P  1.41000000E-01  1.000000

  C (Carbon)
  ----------
            Exponent  Coefficients 
       -------------- ---------------------------------------------------------
  1 S  6.66500000E+03  0.000692
  1 S  1.00000000E+03  0.005329
  1 S  2.28000000E+02  0.027077
  1 S  6.47100000E+01  0.101718
  1 S  2.10600000E+01  0.274740
  1 S  7.49500000E+00  0.448564
  1 S  2.79700000E+00  0.285074
  1 S  5.21500000E-01  0.015204

  2 S  6.66500000E+03 -0.000146
  2 S  1.00000000E+03 -0.001154
  2 S  2.28000000E+02 -0.005725
  2 S  6.47100000E+01 -0.023312
  2 S  2.10600000E+01 -0.063955
  2 S  7.49500000E+00 -0.149981
  2 S  2.79700000E+00 -0.127262
  2 S  5.21500000E-01  0.544529

  3 S  1.59600000E-01  1.000000

  4 S  4.69000000E-02  1.000000

  5 P  9.43900000E+00  0.038109
  5 P  2.00200000E+00  0.209480
  5 P  5.45600000E-01  0.508557

  6 P  1.51700000E-01  1.000000

  7 P  4.04100000E-02  1.000000

  8 D  5.50000000E-01  1.000000

  9 D  1.51000000E-01  1.000000

  O (Oxygen)
  ----------
            Exponent  Coefficients 
       -------------- ---------------------------------------------------------
  1 S  1.17200000E+04  0.000710
  1 S  1.75900000E+03  0.005470
  1 S  4.00800000E+02  0.027837
  1 S  1.13700000E+02  0.104800
  1 S  3.70300000E+01  0.283062
  1 S  1.32700000E+01  0.448719
  1 S  5.02500000E+00  0.270952
  1 S  1.01300000E+00  0.015458

  2 S  1.17200000E+04 -0.000160
  2 S  1.75900000E+03 -0.001263
  2 S  4.00800000E+02 -0.006267
  2 S  1.13700000E+02 -0.025716
  2 S  3.70300000E+01 -0.070924
  2 S  1.32700000E+01 -0.165411
  2 S  5.02500000E+00 -0.116955
  2 S  1.01300000E+00  0.557368

  3 S  3.02300000E-01  1.000000

  4 S  7.89600000E-02  1.000000

  5 P  1.77000000E+01  0.043018
  5 P  3.85400000E+00  0.228913
  5 P  1.04600000E+00  0.508728

  6 P  2.75300000E-01  1.000000

  7 P  6.85600000E-02  1.000000

  8 D  1.18500000E+00  1.000000

  9 D  3.32000000E-01  1.000000

  N (Nitrogen)
  ------------
            Exponent  Coefficients 
       -------------- ---------------------------------------------------------
  1 S  9.04600000E+03  0.000700
  1 S  1.35700000E+03  0.005389
  1 S  3.09300000E+02  0.027406
  1 S  8.77300000E+01  0.103207
  1 S  2.85600000E+01  0.278723
  1 S  1.02100000E+01  0.448540
  1 S  3.83800000E+00  0.278238
  1 S  7.46600000E-01  0.015440

  2 S  9.04600000E+03 -0.000153
  2 S  1.35700000E+03 -0.001208
  2 S  3.09300000E+02 -0.005992
  2 S  8.77300000E+01 -0.024544
  2 S  2.85600000E+01 -0.067459
  2 S  1.02100000E+01 -0.158078
  2 S  3.83800000E+00 -0.121831
  2 S  7.46600000E-01  0.549003

  3 S  2.24800000E-01  1.000000

  4 S  6.12400000E-02  1.000000

  5 P  1.35500000E+01  0.039919
  5 P  2.91700000E+00  0.217169
  5 P  7.97300000E-01  0.510319

  6 P  2.18500000E-01  1.000000

  7 P  5.61100000E-02  1.000000

  8 D  8.17000000E-01  1.000000

  9 D  2.30000000E-01  1.000000

  S (Sulphur)
  -----------
            Exponent  Coefficients 
       -------------- ---------------------------------------------------------
  1 S  1.10800000E+05  0.000248
  1 S  1.66100000E+04  0.001920
  1 S  3.78100000E+03  0.009962
  1 S  1.07100000E+03  0.040298
  1 S  3.49800000E+02  0.128604
  1 S  1.26300000E+02  0.303480
  1 S  4.92600000E+01  0.421432
  1 S  2.01600000E+01  0.230781
  1 S  5.72000000E+00  0.017897
  1 S  2.18200000E+00 -0.002975
  1 S  4.32700000E-01  0.000850

  2 S  1.10800000E+05 -0.000069
  2 S  1.66100000E+04 -0.000528
  2 S  3.78100000E+03 -0.002797
  2 S  1.07100000E+03 -0.011265
  2 S  3.49800000E+02 -0.038883
  2 S  1.26300000E+02 -0.099503
  2 S  4.92600000E+01 -0.199740
  2 S  2.01600000E+01 -0.123360
  2 S  5.72000000E+00  0.513194
  2 S  2.18200000E+00  0.607120
  2 S  4.32700000E-01  0.039675

  3 S  1.10800000E+05  0.000020
  3 S  1.66100000E+04  0.000153
  3 S  3.78100000E+03  0.000810
  3 S  1.07100000E+03  0.003290
  3 S  3.49800000E+02  0.011297
  3 S  1.26300000E+02  0.029639
  3 S  4.92600000E+01  0.059985
  3 S  2.01600000E+01  0.041325
  3 S  5.72000000E+00 -0.207474
  3 S  2.18200000E+00 -0.392889
  3 S  4.32700000E-01  0.632840

  4 S  1.57000000E-01  1.000000

  5 S  5.07000000E-02  1.000000

  6 P  3.99700000E+02  0.004475
  6 P  9.41900000E+01  0.034171
  6 P  2.97500000E+01  0.144250
  6 P  1.07700000E+01  0.353928
  6 P  4.11900000E+00  0.459085
  6 P  1.62500000E+00  0.206383
  6 P  4.72600000E-01  0.010214

  7 P  3.99700000E+02 -0.001163
  7 P  9.41900000E+01 -0.008657
  7 P  2.97500000E+01 -0.039089
  7 P  1.07700000E+01 -0.093463
  7 P  4.11900000E+00 -0.147994
  7 P  1.62500000E+00  0.030190
  7 P  4.72600000E-01  0.561573

  8 P  1.40700000E-01  1.000000

  9 P  3.99000000E-02  1.000000

 10 D  4.79000000E-01  1.000000

 11 D  1.52000000E-01  1.000000



 Summary of "ao basis" -> "ao basis" (cartesian)
 ------------------------------------------------------------------------------
       Tag                 Description            Shells   Functions and Types
 ---------------- ------------------------------  ------  ---------------------
 H                        aug-cc-pvdz                5        9   3s2p
 C                        aug-cc-pvdz                9       25   4s3p2d
 O                        aug-cc-pvdz                9       25   4s3p2d
 N                        aug-cc-pvdz                9       25   4s3p2d
 S                        aug-cc-pvdz               11       29   5s4p2d


                                 NWChem SCF Module
                                 -----------------



  ao basis        = "ao basis"
  functions       =   641
  atoms           =    37
  closed shells   =    77
  open shells     =     0
  charge          =   0.00
  wavefunction    = RHF 
  input vectors   = atomic
  output vectors  = ./GLN_CYS_3.movecs
  use symmetry    = F
  symmetry adapt  = F


 Summary of "ao basis" -> "ao basis" (cartesian)
 ------------------------------------------------------------------------------
       Tag                 Description            Shells   Functions and Types
 ---------------- ------------------------------  ------  ---------------------
 H                        aug-cc-pvdz                5        9   3s2p
 C                        aug-cc-pvdz                9       25   4s3p2d
 O                        aug-cc-pvdz                9       25   4s3p2d
 N                        aug-cc-pvdz                9       25   4s3p2d
 S                        aug-cc-pvdz               11       29   5s4p2d



 Forming initial guess at       1.1s


 !! The overlap matrix has   5 vectors deemed linearly dependent with
    eigenvalues:
 1.83D-06 3.28D-06 5.13D-06 7.38D-06 8.20D-06


      Superposition of Atomic Density Guess
      -------------------------------------

 Sum of atomic energies:       -1299.41518133

      Non-variational initial energy
      ------------------------------

 Total energy =   -1311.313918
 1-e energy   =   -5206.525574
 2-e energy   =    2170.786497
 HOMO         =      -0.285893
 LUMO         =       0.007420


 Starting SCF solution at     731.6s



 ----------------------------------------------
         Quadratically convergent ROHF

 Convergence threshold     :          1.000E-04
 Maximum no. of iterations :           30
 Final Fock-matrix accuracy:          1.000E-10
 ----------------------------------------------


              iter       energy          gnorm     gmax       time
             ----- ------------------- --------- --------- --------
                 1    -1303.7119363189  2.68D+00  1.00D-01   1534.0
                 2    -1304.0936162523  8.85D-01  3.64D-02   3133.8
                 3    -1304.1626562636  7.00D-02  3.31D-03   5394.0
                 4    -1304.1634037958  4.50D-03  3.53D-04   8369.0
                 5    -1304.1634075486  9.61D-06  4.51D-07  13538.9


       Final RHF  results 
       ------------------ 

         Total SCF energy =  -1304.163407548647
      One-electron energy =  -5219.283255934496
      Two-electron energy =   2190.694689336567
 Nuclear repulsion energy =   1724.425159049282

        Time for solution =  12810.3s


             Final eigenvalues
             -----------------

              1      
    1  -91.9657
    2  -20.5507
    3  -20.5435
    4  -20.5278
    5  -20.5187
    6  -15.6238
    7  -15.6099
    8  -15.5911
    9  -15.5788
   10  -11.3834
   11  -11.3713
   12  -11.3597
   13  -11.3590
   14  -11.3195
   15  -11.3185
   16  -11.2767
   17  -11.2734
   18  -11.2607
   19  -11.2510
   20   -8.9670
   21   -6.6494
   22   -6.6481
   23   -6.6459
   24   -1.4142
   25   -1.4019
   26   -1.4000
   27   -1.3805
   28   -1.2700
   29   -1.2603
   30   -1.2258
   31   -1.2057
   32   -1.1063
   33   -1.0833
   34   -1.0301
   35   -0.9957
   36   -0.9705
   37   -0.8920
   38   -0.8597
   39   -0.8397
   40   -0.8155
   41   -0.7953
   42   -0.7761
   43   -0.7471
   44   -0.7380
   45   -0.7358
   46   -0.6986
   47   -0.6924
   48   -0.6896
   49   -0.6721
   50   -0.6564
   51   -0.6402
   52   -0.6312
   53   -0.6212
   54   -0.6141
   55   -0.6078
   56   -0.5972
   57   -0.5911
   58   -0.5821
   59   -0.5789
   60   -0.5728
   61   -0.5606
   62   -0.5444
   63   -0.5397
   64   -0.5350
   65   -0.5296
   66   -0.5193
   67   -0.5058
   68   -0.4646
   69   -0.4554
   70   -0.4482
   71   -0.4386
   72   -0.4300
   73   -0.4167
   74   -0.4084
   75   -0.4067
   76   -0.3970
   77   -0.3645
   78    0.0267
   79    0.0338
   80    0.0359
   81    0.0410
   82    0.0471
   83    0.0512
   84    0.0561
   85    0.0574
   86    0.0602
   87    0.0709

                       ROHF Final Molecular Orbital Analysis
                       -------------------------------------

 Vector   24  Occ=2.000000D+00  E=-1.414171D+00
              MO Center=  4.4D-01, -2.5D-01, -5.0D-03, r^2= 3.2D+00
   Bfn.  Coefficient  Atom+Function         Bfn.  Coefficient  Atom+Function  
  ----- ------------  ---------------      ----- ------------  ---------------
   377      0.315806  23 O  s               376      0.285386  23 O  s         
   351      0.207120  22 C  s               173     -0.189075  11 C  s         
    80      0.183626   6 O  s                79      0.174961   6 O  s         
    12      0.173673   2 C  s         

 Vector   25  Occ=2.000000D+00  E=-1.401925D+00
              MO Center=  1.5D+00, -8.5D-01, -5.7D-01, r^2= 3.2D+00
   Bfn.  Coefficient  Atom+Function         Bfn.  Coefficient  Atom+Function  
  ----- ------------  ---------------      ----- ------------  ---------------
    80      0.308030   6 O  s                79      0.300130   6 O  s         
   377     -0.213035  23 O  s                54      0.204115   5 C  s         
   376     -0.192298  23 O  s         

 Vector   26  Occ=2.000000D+00  E=-1.399956D+00
              MO Center= -1.2D+00, -3.4D+00,  8.4D-01, r^2= 1.5D+00
   Bfn.  Coefficient  Atom+Function         Bfn.  Coefficient  Atom+Function  
  ----- ------------  ---------------      ----- ------------  ---------------
   284      0.366226  18 O  s               283      0.344902  18 O  s         
   258      0.244405  17 C  s         

 Vector   27  Occ=2.000000D+00  E=-1.380472D+00
              MO Center=  1.8D+00,  3.0D+00,  1.2D+00, r^2= 1.1D+00
   Bfn.  Coefficient  Atom+Function         Bfn.  Coefficient  Atom+Function  
  ----- ------------  ---------------      ----- ------------  ---------------
   576      0.378258  34 O  s               575      0.350451  34 O  s         
   550      0.244833  33 C  s         

 Vector   28  Occ=2.000000D+00  E=-1.269964D+00
              MO Center=  1.3D-01,  1.1D+00, -4.8D-01, r^2= 2.1D+00
   Bfn.  Coefficient  Atom+Function         Bfn.  Coefficient  Atom+Function  
  ----- ------------  ---------------      ----- ------------  ---------------
   402      0.379171  24 N  s               401      0.332974  24 N  s         
   377     -0.237090  23 O  s               376     -0.188801  23 O  s         
   356     -0.159962  22 C  pz              425      0.153036  25 H  s         

 Vector   29  Occ=2.000000D+00  E=-1.260299D+00
              MO Center=  8.1D-01, -1.7D+00, -8.7D-01, r^2= 2.2D+00
   Bfn.  Coefficient  Atom+Function         Bfn.  Coefficient  Atom+Function  
  ----- ------------  ---------------      ----- ------------  ---------------
   105      0.432134   7 N  s               104      0.338864   7 N  s         
    80     -0.213245   6 O  s                79     -0.176069   6 O  s         
    57     -0.162819   5 C  px        

 Vector   30  Occ=2.000000D+00  E=-1.225792D+00
              MO Center= -1.1D+00, -2.7D+00,  1.7D+00, r^2= 1.3D+00
   Bfn.  Coefficient  Atom+Function         Bfn.  Coefficient  Atom+Function  
  ----- ------------  ---------------      ----- ------------  ---------------
   308      0.366372  19 N  s               309      0.342816  19 N  s         
   284     -0.228852  18 O  s               283     -0.190594  18 O  s         
   216     -0.180302  14 C  s               332      0.162167  20 H  s         
   263      0.157928  17 C  pz              260      0.155602  17 C  s         
   341      0.155963  21 H  s               262      0.154876  17 C  py        

 Vector   31  Occ=2.000000D+00  E=-1.205688D+00
              MO Center=  2.2D+00,  1.9D+00,  6.6D-01, r^2= 1.5D+00
   Bfn.  Coefficient  Atom+Function         Bfn.  Coefficient  Atom+Function  
  ----- ------------  ---------------      ----- ------------  ---------------
   601      0.392677  35 N  s               600      0.370172  35 N  s         
   576     -0.206083  34 O  s               436     -0.190716  26 C  s         
   554     -0.181313  33 C  py              575     -0.173003  34 O  s         
   633      0.162368  37 H  s               624      0.159253  36 H  s         
   556     -0.155074  33 C  px        

 Vector   32  Occ=2.000000D+00  E=-1.106332D+00
              MO Center= -8.1D-01, -8.7D-01, -6.2D-01, r^2= 6.1D+00
   Bfn.  Coefficient  Atom+Function         Bfn.  Coefficient  Atom+Function  
  ----- ------------  ---------------      ----- ------------  ---------------
   172      0.222449  11 C  s               138      0.178313   9 C  s         
   215      0.164855  14 C  s         

 Vector   33  Occ=2.000000D+00  E=-1.083277D+00
              MO Center= -8.7D-01,  1.9D+00, -1.3D-01, r^2= 6.4D+00
   Bfn.  Coefficient  Atom+Function         Bfn.  Coefficient  Atom+Function  
  ----- ------------  ---------------      ----- ------------  ---------------
   469      0.233776  28 C  s               513      0.188178  31 S  s         
   435      0.180281  26 C  s         

 Vector   34  Occ=2.000000D+00  E=-1.030065D+00
              MO Center=  5.5D-01, -2.0D+00, -3.6D-01, r^2= 8.2D+00
   Bfn.  Coefficient  Atom+Function         Bfn.  Coefficient  Atom+Function  
  ----- ------------  ---------------      ----- ------------  ---------------
    11      0.247283   2 C  s               215      0.187188  14 C  s         

 Vector   35  Occ=2.000000D+00  E=-9.957482D-01
              MO Center=  1.4D-01,  4.3D-01, -3.6D-01, r^2= 1.3D+01
   Bfn.  Coefficient  Atom+Function         Bfn.  Coefficient  Atom+Function  
  ----- ------------  ---------------      ----- ------------  ---------------
   513      0.232849  31 S  s                11      0.198521   2 C  s         
   475     -0.166912  28 C  px              435     -0.155824  26 C  s         

 Vector   36  Occ=2.000000D+00  E=-9.705259D-01
              MO Center= -3.7D-01,  2.7D-02, -3.1D-01, r^2= 1.1D+01
   Bfn.  Coefficient  Atom+Function         Bfn.  Coefficient  Atom+Function  
  ----- ------------  ---------------      ----- ------------  ---------------
   216      0.204995  14 C  s               513      0.193945  31 S  s         
   435     -0.162391  26 C  s               215      0.156442  14 C  s         
   138     -0.152658   9 C  s         

 Vector   37  Occ=2.000000D+00  E=-8.919543D-01
              MO Center= -1.1D+00, -7.4D-01, -3.7D-01, r^2= 7.2D+00
   Bfn.  Coefficient  Atom+Function         Bfn.  Coefficient  Atom+Function  
  ----- ------------  ---------------      ----- ------------  ---------------
   216      0.402821  14 C  s               172     -0.217838  11 C  s         
   139      0.169075   9 C  s               223      0.168215  14 C  pz        
   146      0.159635   9 C  pz        

 Vector   38  Occ=2.000000D+00  E=-8.596968D-01
              MO Center= -6.5D-01,  1.9D+00, -4.8D-02, r^2= 8.2D+00
   Bfn.  Coefficient  Atom+Function         Bfn.  Coefficient  Atom+Function  
  ----- ------------  ---------------      ----- ------------  ---------------
   514      0.261491  31 S  s               513      0.224944  31 S  s         
   469     -0.218118  28 C  s               216      0.160872  14 C  s         
   441      0.160745  26 C  px        

 Vector   39  Occ=2.000000D+00  E=-8.396545D-01
              MO Center=  7.1D-01,  5.1D-01, -1.9D-01, r^2= 8.0D+00
   Bfn.  Coefficient  Atom+Function         Bfn.  Coefficient  Atom+Function  
  ----- ------------  ---------------      ----- ------------  ---------------
   436      0.213639  26 C  s               107      0.185437   7 N  px        
   441      0.182110  26 C  px              550      0.168780  33 C  s         
   139      0.163962   9 C  s         

 Vector   40  Occ=2.000000D+00  E=-8.154880D-01
              MO Center=  6.1D-01, -8.7D-01, -6.7D-01, r^2= 5.5D+00
   Bfn.  Coefficient  Atom+Function         Bfn.  Coefficient  Atom+Function  
  ----- ------------  ---------------      ----- ------------  ---------------
   107      0.242345   7 N  px              128     -0.238073   8 H  s         
   139      0.205860   9 C  s               105     -0.182443   7 N  s         
    60     -0.180227   5 C  px              406     -0.171852  24 N  pz        
    12      0.168399   2 C  s                54      0.164060   5 C  s         
   108      0.160679   7 N  py               80     -0.156352   6 O  s         

 Vector   41  Occ=2.000000D+00  E=-7.952531D-01
              MO Center= -1.1D+00, -2.4D+00,  1.2D+00, r^2= 4.0D+00
   Bfn.  Coefficient  Atom+Function         Bfn.  Coefficient  Atom+Function  
  ----- ------------  ---------------      ----- ------------  ---------------
   313      0.278843  19 N  pz              258     -0.214492  17 C  s         
   332      0.198604  20 H  s               284      0.177118  18 O  s         
   341      0.160290  21 H  s               263     -0.158299  17 C  pz        
   311      0.151756  19 N  px        

 Vector   42  Occ=2.000000D+00  E=-7.761337D-01
              MO Center=  1.1D+00,  1.7D+00,  2.2D-01, r^2= 5.2D+00
   Bfn.  Coefficient  Atom+Function         Bfn.  Coefficient  Atom+Function  
  ----- ------------  ---------------      ----- ------------  ---------------
   604      0.237054  35 N  py              406     -0.198166  24 N  pz        
   556      0.195733  33 C  px              425      0.194725  25 H  s         
   443      0.185832  26 C  pz              633     -0.185772  37 H  s         
   550      0.165125  33 C  s               576     -0.162541  34 O  s         
   603     -0.163101  35 N  px              139     -0.151909   9 C  s         

 Vector   43  Occ=2.000000D+00  E=-7.471413D-01
              MO Center=  1.7D-01, -2.6D-01, -5.7D-01, r^2= 5.9D+00
   Bfn.  Coefficient  Atom+Function         Bfn.  Coefficient  Atom+Function  
  ----- ------------  ---------------      ----- ------------  ---------------
   145      0.274060   9 C  py              352     -0.272258  22 C  s         
    55     -0.212540   5 C  s               406     -0.207999  24 N  pz        
   108     -0.184105   7 N  py              128      0.169103   8 H  s         
   355     -0.164735  22 C  py              163     -0.156288  10 H  s         
   425      0.154767  25 H  s         

 Vector   44  Occ=2.000000D+00  E=-7.379677D-01
              MO Center= -3.9D-02, -7.9D-01,  1.1D+00, r^2= 8.9D+00
   Bfn.  Coefficient  Atom+Function         Bfn.  Coefficient  Atom+Function  
  ----- ------------  ---------------      ----- ------------  ---------------
   312      0.290401  19 N  py              332      0.226392  20 H  s         
   341     -0.217059  21 H  s               552      0.201636  33 C  s         
   633      0.177094  37 H  s               216     -0.175222  14 C  s         
   604     -0.152111  35 N  py        

 Vector   45  Occ=2.000000D+00  E=-7.358015D-01
              MO Center=  4.9D-01, -2.5D-01,  5.1D-01, r^2= 9.6D+00
   Bfn.  Coefficient  Atom+Function         Bfn.  Coefficient  Atom+Function  
  ----- ------------  ---------------      ----- ------------  ---------------
   312      0.220913  19 N  py              633     -0.179384  37 H  s         
   332      0.172909  20 H  s               605      0.164605  35 N  pz        

 Vector   46  Occ=2.000000D+00  E=-6.985718D-01
              MO Center=  5.8D-01,  4.7D-01, -9.1D-02, r^2= 7.8D+00
   Bfn.  Coefficient  Atom+Function         Bfn.  Coefficient  Atom+Function  
  ----- ------------  ---------------      ----- ------------  ---------------
   143      0.183903   9 C  pz              624     -0.175751  36 H  s         
   603     -0.167652  35 N  px              442     -0.165619  26 C  py        
   405      0.164277  24 N  py              439     -0.160999  26 C  py        
   162     -0.157225  10 H  s         

 Vector   47  Occ=2.000000D+00  E=-6.924000D-01
              MO Center=  1.4D+00, -1.5D+00, -3.2D-01, r^2= 8.0D+00
   Bfn.  Coefficient  Atom+Function         Bfn.  Coefficient  Atom+Function  
  ----- ------------  ---------------      ----- ------------  ---------------
    83     -0.249927   6 O  py               57      0.227563   5 C  px        
    15      0.193622   2 C  py               80     -0.189401   6 O  s         
    18      0.178555   2 C  py               86     -0.150975   6 O  py        

 Vector   48  Occ=2.000000D+00  E=-6.896314D-01
              MO Center= -9.6D-01, -1.4D+00, -8.5D-02, r^2= 7.5D+00
   Bfn.  Coefficient  Atom+Function         Bfn.  Coefficient  Atom+Function  
  ----- ------------  ---------------      ----- ------------  ---------------
   216      0.296968  14 C  s               239      0.194097  15 H  s         
   219      0.182260  14 C  py              176      0.167764  11 C  py        
   139      0.165726   9 C  s               263      0.162179  17 C  pz        
   266      0.159916  17 C  pz              287     -0.155444  18 O  py        

 Vector   49  Occ=2.000000D+00  E=-6.720924D-01
              MO Center=  3.7D-01, -1.1D+00, -1.3D-01, r^2= 9.6D+00
   Bfn.  Coefficient  Atom+Function         Bfn.  Coefficient  Atom+Function  
  ----- ------------  ---------------      ----- ------------  ---------------
   139      0.198505   9 C  s                83      0.191412   6 O  py        
   145      0.175680   9 C  py               80      0.164604   6 O  s         
   361      0.165251  22 C  py              263     -0.155555  17 C  pz        
   287      0.156301  18 O  py              471     -0.153086  28 C  s         

 Vector   50  Occ=2.000000D+00  E=-6.564019D-01
              MO Center=  3.2D-01,  8.4D-01,  3.2D-01, r^2= 1.0D+01
   Bfn.  Coefficient  Atom+Function         Bfn.  Coefficient  Atom+Function  
  ----- ------------  ---------------      ----- ------------  ---------------
   352      0.238487  22 C  s               381     -0.173948  23 O  pz        
   139     -0.170529   9 C  s               217     -0.150419  14 C  s         

 Vector   51  Occ=2.000000D+00  E=-6.401509D-01
              MO Center=  2.3D-01,  5.8D-01,  3.1D-01, r^2= 7.9D+00
   Bfn.  Coefficient  Atom+Function         Bfn.  Coefficient  Atom+Function  
  ----- ------------  ---------------      ----- ------------  ---------------
   381      0.298929  23 O  pz              356     -0.226528  22 C  pz        
   377      0.210101  23 O  s               436      0.154336  26 C  s         

 Vector   52  Occ=2.000000D+00  E=-6.311646D-01
              MO Center=  6.5D-01, -1.8D+00, -4.3D-01, r^2= 7.7D+00
   Bfn.  Coefficient  Atom+Function         Bfn.  Coefficient  Atom+Function  
  ----- ------------  ---------------      ----- ------------  ---------------
   217      0.205292  14 C  s               139      0.200613   9 C  s         
    59      0.194044   5 C  pz              352     -0.187875  22 C  s         
     1     -0.184764   1 H  s               240     -0.180725  15 H  s         
    16      0.173003   2 C  pz        

 Vector   53  Occ=2.000000D+00  E=-6.212044D-01
              MO Center=  1.7D-01,  1.8D+00,  2.0D-01, r^2= 8.2D+00
   Bfn.  Coefficient  Atom+Function         Bfn.  Coefficient  Atom+Function  
  ----- ------------  ---------------      ----- ------------  ---------------
   470      0.238934  28 C  s               436     -0.222525  26 C  s         
   404      0.205279  24 N  px              494     -0.184661  29 H  s         
   407      0.161966  24 N  px              502      0.154363  30 H  s         

 Vector   54  Occ=2.000000D+00  E=-6.140863D-01
              MO Center= -2.7D-01, -1.8D+00, -2.4D-02, r^2= 9.0D+00
   Bfn.  Coefficient  Atom+Function         Bfn.  Coefficient  Atom+Function  
  ----- ------------  ---------------      ----- ------------  ---------------
   217      0.231744  14 C  s               287      0.181484  18 O  py        
   145      0.180359   9 C  py              262     -0.178369  17 C  py        
   175     -0.171864  11 C  px              197      0.163007  12 H  s         
    16     -0.159276   2 C  pz        

 Vector   55  Occ=2.000000D+00  E=-6.077966D-01
              MO Center= -4.6D-01, -1.7D+00, -8.5D-02, r^2= 8.9D+00
   Bfn.  Coefficient  Atom+Function         Bfn.  Coefficient  Atom+Function  
  ----- ------------  ---------------      ----- ------------  ---------------
   176      0.208902  11 C  py              287      0.196572  18 O  py        
   260      0.170863  17 C  s               262     -0.169468  17 C  py        
   361      0.165245  22 C  py              196      0.152825  12 H  s         
   284     -0.151749  18 O  s         

 Vector   56  Occ=2.000000D+00  E=-5.972378D-01
              MO Center=  1.0D+00, -2.2D-01, -9.6D-03, r^2= 1.2D+01
   Bfn.  Coefficient  Atom+Function         Bfn.  Coefficient  Atom+Function  
  ----- ------------  ---------------      ----- ------------  ---------------
    58      0.226694   5 C  py               82     -0.210259   6 O  px        
   352     -0.180960  22 C  s               579      0.166053  34 O  py        
   580      0.156597  34 O  pz        

 Vector   57  Occ=2.000000D+00  E=-5.911038D-01
              MO Center= -4.0D-01, -1.3D+00,  2.7D-01, r^2= 9.1D+00
   Bfn.  Coefficient  Atom+Function         Bfn.  Coefficient  Atom+Function  
  ----- ------------  ---------------      ----- ------------  ---------------
   163      0.211900  10 H  s               261      0.189136  17 C  px        
   286      0.188364  18 O  px              162      0.166728  10 H  s         
   173     -0.159985  11 C  s               143     -0.156368   9 C  pz        
   129      0.153545   8 H  s               289      0.150935  18 O  px        

 Vector   58  Occ=2.000000D+00  E=-5.821476D-01
              MO Center=  2.1D-01,  6.1D-01,  3.5D-01, r^2= 1.2D+01
   Bfn.  Coefficient  Atom+Function         Bfn.  Coefficient  Atom+Function  
  ----- ------------  ---------------      ----- ------------  ---------------
   173      0.209997  11 C  s               493     -0.182495  29 H  s         
   471     -0.174865  28 C  s               473      0.168985  28 C  py        

 Vector   59  Occ=2.000000D+00  E=-5.789035D-01
              MO Center=  1.1D+00,  1.2D+00,  3.0D-01, r^2= 9.7D+00
   Bfn.  Coefficient  Atom+Function         Bfn.  Coefficient  Atom+Function  
  ----- ------------  ---------------      ----- ------------  ---------------
   580      0.242173  34 O  pz              554     -0.206388  33 C  py        
   440      0.153536  26 C  pz              472      0.150125  28 C  px        

 Vector   60  Occ=2.000000D+00  E=-5.728083D-01
              MO Center=  1.3D+00, -2.6D+00, -1.3D-01, r^2= 8.3D+00
   Bfn.  Coefficient  Atom+Function         Bfn.  Coefficient  Atom+Function  
  ----- ------------  ---------------      ----- ------------  ---------------
    14      0.315922   2 C  px               35      0.310105   3 H  s         
    36      0.233041   3 H  s               173      0.184885  11 C  s         
    56     -0.153875   5 C  s               113      0.153762   7 N  px        
   145      0.152397   9 C  py        

 Vector   61  Occ=2.000000D+00  E=-5.605920D-01
              MO Center= -6.2D-01,  1.1D+00,  1.1D-01, r^2= 9.8D+00
   Bfn.  Coefficient  Atom+Function         Bfn.  Coefficient  Atom+Function  
  ----- ------------  ---------------      ----- ------------  ---------------
   473      0.200452  28 C  py              502      0.187659  30 H  s         
   379     -0.181932  23 O  px              354     -0.150038  22 C  px        
   494     -0.150211  29 H  s         

 Vector   62  Occ=2.000000D+00  E=-5.443549D-01
              MO Center= -2.1D-01,  1.7D+00, -1.1D-01, r^2= 1.1D+01
   Bfn.  Coefficient  Atom+Function         Bfn.  Coefficient  Atom+Function  
  ----- ------------  ---------------      ----- ------------  ---------------
   471      0.256384  28 C  s               519     -0.221658  31 S  px        
   540      0.209612  32 H  s               441     -0.165625  26 C  px        
   360      0.160489  22 C  px              459      0.155009  27 H  s         

 Vector   63  Occ=2.000000D+00  E=-5.396764D-01
              MO Center= -5.6D-01, -8.6D-01, -2.9D-01, r^2= 1.0D+01
   Bfn.  Coefficient  Atom+Function         Bfn.  Coefficient  Atom+Function  
  ----- ------------  ---------------      ----- ------------  ---------------
   197      0.275728  12 H  s               196      0.227986  12 H  s         
   206     -0.208413  13 H  s               288     -0.182632  18 O  pz        
   175     -0.179455  11 C  px              176      0.173801  11 C  py        
   361      0.154876  22 C  py              262      0.153139  17 C  py        

 Vector   64  Occ=2.000000D+00  E=-5.350448D-01
              MO Center=  1.0D+00, -1.7D+00, -4.3D-01, r^2= 8.5D+00
   Bfn.  Coefficient  Atom+Function         Bfn.  Coefficient  Atom+Function  
  ----- ------------  ---------------      ----- ------------  ---------------
    84     -0.228982   6 O  pz               16      0.217275   2 C  pz        
    44      0.191996   4 H  s               109     -0.172938   7 N  pz        
    87     -0.170210   6 O  pz                1     -0.169323   1 H  s         
    59     -0.166554   5 C  pz              112     -0.163590   7 N  pz        
   217      0.150975  14 C  s         

 Vector   65  Occ=2.000000D+00  E=-5.295710D-01
              MO Center= -1.4D+00, -9.7D-01, -1.8D-01, r^2= 6.9D+00
   Bfn.  Coefficient  Atom+Function         Bfn.  Coefficient  Atom+Function  
  ----- ------------  ---------------      ----- ------------  ---------------
   173      0.366772  11 C  s               260      0.290456  17 C  s         
   144      0.245786   9 C  px              139     -0.236062   9 C  s         
   220      0.225504  14 C  pz              177     -0.217836  11 C  pz        
   239      0.216875  15 H  s               380     -0.212665  23 O  py        
   205      0.210162  13 H  s               240      0.207309  15 H  s         

 Vector   66  Occ=2.000000D+00  E=-5.192594D-01
              MO Center=  5.0D-02,  1.7D+00,  2.3D-01, r^2= 8.2D+00
   Bfn.  Coefficient  Atom+Function         Bfn.  Coefficient  Atom+Function  
  ----- ------------  ---------------      ----- ------------  ---------------
   472      0.223124  28 C  px              438     -0.190221  26 C  px        
   460     -0.179027  27 H  s               379      0.176722  23 O  px        
   440      0.166683  26 C  pz              217      0.159203  14 C  s         
   475      0.157906  28 C  px              459     -0.152557  27 H  s         

 Vector   67  Occ=2.000000D+00  E=-5.057975D-01
              MO Center= -8.4D-01, -1.5D+00, -4.1D-01, r^2= 6.2D+00
   Bfn.  Coefficient  Atom+Function         Bfn.  Coefficient  Atom+Function  
  ----- ------------  ---------------      ----- ------------  ---------------
   218      0.194108  14 C  px              175     -0.191564  11 C  px        
   141      0.189520   9 C  px              248     -0.184061  16 H  s         
    84      0.183022   6 O  pz              162      0.174194  10 H  s         
   139      0.167389   9 C  s               178     -0.167797  11 C  px        
   145      0.159916   9 C  py              361      0.157313  22 C  py        

 Vector   68  Occ=2.000000D+00  E=-4.645802D-01
              MO Center= -1.7D+00,  3.0D+00, -4.8D-01, r^2= 4.1D+00
   Bfn.  Coefficient  Atom+Function         Bfn.  Coefficient  Atom+Function  
  ----- ------------  ---------------      ----- ------------  ---------------
   521      0.397014  31 S  pz              514     -0.347998  31 S  s         
   524      0.274686  31 S  pz              474     -0.228516  28 C  pz        
   477     -0.198893  28 C  pz              471     -0.169230  28 C  s         
   540      0.153369  32 H  s         

 Vector   69  Occ=2.000000D+00  E=-4.554480D-01
              MO Center= -6.4D-02, -2.8D-01,  1.3D-01, r^2= 5.8D+00
   Bfn.  Coefficient  Atom+Function         Bfn.  Coefficient  Atom+Function  
  ----- ------------  ---------------      ----- ------------  ---------------
   380      0.417089  23 O  py              383      0.339839  23 O  py        
   358     -0.212713  22 C  py               84     -0.189738   6 O  pz        
   109      0.181719   7 N  pz              206      0.171565  13 H  s         
   112      0.157359   7 N  pz        

 Vector   70  Occ=2.000000D+00  E=-4.481904D-01
              MO Center=  9.2D-01,  4.4D-01, -4.6D-02, r^2= 8.1D+00
   Bfn.  Coefficient  Atom+Function         Bfn.  Coefficient  Atom+Function  
  ----- ------------  ---------------      ----- ------------  ---------------
    82      0.263069   6 O  px              379      0.250334  23 O  px        
   404     -0.227712  24 N  px              552     -0.226354  33 C  s         
    85      0.224328   6 O  px              407     -0.210249  24 N  px        
   382      0.207811  23 O  px              578     -0.207484  34 O  px        
   581     -0.165190  34 O  px        

 Vector   71  Occ=2.000000D+00  E=-4.385991D-01
              MO Center=  1.7D+00, -2.8D-02, -3.6D-01, r^2= 7.5D+00
   Bfn.  Coefficient  Atom+Function         Bfn.  Coefficient  Atom+Function  
  ----- ------------  ---------------      ----- ------------  ---------------
    82      0.363488   6 O  px               85      0.293754   6 O  px        
   578      0.220470  34 O  px               83     -0.211985   6 O  py        
   404      0.175259  24 N  px               56      0.174058   5 C  s         
   581      0.174191  34 O  px               15     -0.165459   2 C  py        
    86     -0.161493   6 O  py              407      0.161860  24 N  px        

 Vector   72  Occ=2.000000D+00  E=-4.299860D-01
              MO Center= -1.1D+00, -3.1D+00,  5.1D-01, r^2= 4.0D+00
   Bfn.  Coefficient  Atom+Function         Bfn.  Coefficient  Atom+Function  
  ----- ------------  ---------------      ----- ------------  ---------------
   288      0.444991  18 O  pz              291      0.361133  18 O  pz        
   173     -0.290724  11 C  s               197      0.254751  12 H  s         
   266     -0.204106  17 C  pz              259      0.190208  17 C  s         
   361      0.183243  22 C  py              286      0.182163  18 O  px        
   174     -0.173493  11 C  s               264     -0.169225  17 C  px        

 Vector   73  Occ=2.000000D+00  E=-4.166880D-01
              MO Center= -4.9D-01, -2.6D+00,  5.3D-01, r^2= 5.5D+00
   Bfn.  Coefficient  Atom+Function         Bfn.  Coefficient  Atom+Function  
  ----- ------------  ---------------      ----- ------------  ---------------
   286      0.364177  18 O  px              289      0.294433  18 O  px        
   109     -0.254618   7 N  pz              311     -0.231090  19 N  px        
   112     -0.229797   7 N  pz              313      0.211575  19 N  pz        
   314     -0.199439  19 N  px              316      0.184097  19 N  pz        
    84      0.174490   6 O  pz              552     -0.150754  33 C  s         

 Vector   74  Occ=2.000000D+00  E=-4.083958D-01
              MO Center=  4.1D-01, -4.4D-01,  4.3D-01, r^2= 9.6D+00
   Bfn.  Coefficient  Atom+Function         Bfn.  Coefficient  Atom+Function  
  ----- ------------  ---------------      ----- ------------  ---------------
   109      0.223509   7 N  pz              578     -0.217985  34 O  px        
   311     -0.209513  19 N  px              112      0.193635   7 N  pz        
   581     -0.170958  34 O  px              314     -0.166727  19 N  px        
   352     -0.167445  22 C  s               358      0.162290  22 C  py        
   380     -0.155655  23 O  py        

 Vector   75  Occ=2.000000D+00  E=-4.066844D-01
              MO Center=  8.7D-01,  1.3D+00,  4.7D-01, r^2= 8.2D+00
   Bfn.  Coefficient  Atom+Function         Bfn.  Coefficient  Atom+Function  
  ----- ------------  ---------------      ----- ------------  ---------------
   578      0.348263  34 O  px              581      0.272197  34 O  px        
   404     -0.242494  24 N  px              407     -0.223466  24 N  px        
   109      0.160191   7 N  pz              604     -0.150999  35 N  py        

 Vector   76  Occ=2.000000D+00  E=-3.970363D-01
              MO Center=  1.8D+00,  2.0D+00,  7.9D-01, r^2= 4.1D+00
   Bfn.  Coefficient  Atom+Function         Bfn.  Coefficient  Atom+Function  
  ----- ------------  ---------------      ----- ------------  ---------------
   580      0.278525  34 O  pz              605     -0.277335  35 N  pz        
   603      0.235775  35 N  px              608     -0.232876  35 N  pz        
   579     -0.225148  34 O  py              583      0.214385  34 O  pz        
   606      0.208528  35 N  px              604      0.185042  35 N  py        
   582     -0.179159  34 O  py              607      0.160676  35 N  py        

 Vector   77  Occ=2.000000D+00  E=-3.644984D-01
              MO Center= -2.1D+00,  3.3D+00, -6.0D-01, r^2= 2.2D+00
   Bfn.  Coefficient  Atom+Function         Bfn.  Coefficient  Atom+Function  
  ----- ------------  ---------------      ----- ------------  ---------------
   520      0.481707  31 S  py              523      0.473378  31 S  py        
   494      0.255954  29 H  s               522      0.183361  31 S  px        
   519      0.170784  31 S  px        

 Vector   78  Occ=0.000000D+00  E= 2.670186D-02
              MO Center= -1.3D+00, -5.2D-01, -2.5D+00, r^2= 2.8D+01
   Bfn.  Coefficient  Atom+Function         Bfn.  Coefficient  Atom+Function  
  ----- ------------  ---------------      ----- ------------  ---------------
    56      4.433772   5 C  s               149     -2.950582   9 C  pz        
   164     -2.754223  10 H  s               552      2.546387  33 C  s         
    13      1.964328   2 C  s               130      1.910667   8 H  s         
   361      1.890351  22 C  py              360     -1.849708  22 C  px        
    63     -1.685592   5 C  px              362      1.599215  22 C  pz        

 Vector   79  Occ=0.000000D+00  E= 3.382022D-02
              MO Center=  2.2D+00, -2.6D+00,  9.1D-01, r^2= 3.1D+01
   Bfn.  Coefficient  Atom+Function         Bfn.  Coefficient  Atom+Function  
  ----- ------------  ---------------      ----- ------------  ---------------
   147      4.337905   9 C  px               63      3.937327   5 C  px        
   217      3.552858  14 C  s                56     -3.385120   5 C  s         
   361     -2.679022  22 C  py               64     -2.503310   5 C  py        
   310     -2.284654  19 N  s                12      2.164489   2 C  s         
    37     -1.800856   3 H  s               113      1.738064   7 N  px        

 Vector   80  Occ=0.000000D+00  E= 3.586374D-02
              MO Center= -2.3D+00, -2.2D-02,  1.9D-01, r^2= 3.4D+01
   Bfn.  Coefficient  Atom+Function         Bfn.  Coefficient  Atom+Function  
  ----- ------------  ---------------      ----- ------------  ---------------
   250      2.683368  16 H  s               471      2.668520  28 C  s         
   147      2.308222   9 C  px              217      2.168735  14 C  s         
   224      2.167882  14 C  px              552     -2.173568  33 C  s         
   164     -2.031629  10 H  s               207     -1.948991  13 H  s         
   444      1.905771  26 C  px              362     -1.848464  22 C  pz        

 Vector   81  Occ=0.000000D+00  E= 4.095410D-02
              MO Center= -1.0D+00,  4.9D-01, -1.7D+00, r^2= 3.9D+01
   Bfn.  Coefficient  Atom+Function         Bfn.  Coefficient  Atom+Function  
  ----- ------------  ---------------      ----- ------------  ---------------
   361      4.362391  22 C  py              207      2.700202  13 H  s         
   360      2.553343  22 C  px              461     -2.492011  27 H  s         
   250      2.305188  16 H  s               260      2.238326  17 C  s         
   403     -2.222645  24 N  s               552      2.179822  33 C  s         
   139      2.134589   9 C  s               174      2.123202  11 C  s         

 Vector   82  Occ=0.000000D+00  E= 4.708697D-02
              MO Center= -6.4D-01, -3.1D-01,  5.1D-01, r^2= 4.8D+01
   Bfn.  Coefficient  Atom+Function         Bfn.  Coefficient  Atom+Function  
  ----- ------------  ---------------      ----- ------------  ---------------
   552      3.648718  33 C  s               260     -3.205723  17 C  s         
   444     -2.478639  26 C  px                3     -2.452484   1 H  s         
   147      2.419488   9 C  px              542     -2.329203  32 H  s         
   361     -2.055592  22 C  py              471     -2.042049  28 C  s         
   362     -1.924120  22 C  pz              267     -1.736232  17 C  px        

 Vector   83  Occ=0.000000D+00  E= 5.123042D-02
              MO Center=  1.4D+00, -1.5D+00,  6.9D-01, r^2= 4.0D+01
   Bfn.  Coefficient  Atom+Function         Bfn.  Coefficient  Atom+Function  
  ----- ------------  ---------------      ----- ------------  ---------------
   260      4.401432  17 C  s               250      3.170107  16 H  s         
   310     -3.162556  19 N  s                37      2.903594   3 H  s         
    63     -2.745842   5 C  px               56      2.651330   5 C  s         
   174     -2.634115  11 C  s               164     -2.459392  10 H  s         
   224      2.171146  14 C  px              217      2.113725  14 C  s         

 Vector   84  Occ=0.000000D+00  E= 5.610710D-02
              MO Center= -1.3D+00, -1.2D-01, -1.2D+00, r^2= 3.9D+01
   Bfn.  Coefficient  Atom+Function         Bfn.  Coefficient  Atom+Function  
  ----- ------------  ---------------      ----- ------------  ---------------
   198      4.752063  12 H  s               250     -3.699706  16 H  s         
   461     -3.329832  27 H  s               224     -3.077242  14 C  px        
   217     -2.827850  14 C  s               360     -2.336914  22 C  px        
   446     -2.138152  26 C  pz              182     -2.014699  11 C  py        
   362      2.000302  22 C  pz              241     -1.934452  15 H  s         

 Vector   85  Occ=0.000000D+00  E= 5.742377D-02
              MO Center=  9.4D-01, -3.6D-01,  5.9D-01, r^2= 4.0D+01
   Bfn.  Coefficient  Atom+Function         Bfn.  Coefficient  Atom+Function  
  ----- ------------  ---------------      ----- ------------  ---------------
   164      3.839187  10 H  s               149      3.103364   9 C  pz        
   403     -3.013904  24 N  s               207      2.887245  13 H  s         
   198     -2.329144  12 H  s               446     -2.278893  26 C  pz        
   427     -2.238681  25 H  s                56     -2.212304   5 C  s         
   360      2.185918  22 C  px               46     -2.125169   4 H  s         

 Vector   86  Occ=0.000000D+00  E= 6.015766D-02
              MO Center= -5.5D-01,  5.5D-01, -4.8D-01, r^2= 4.3D+01
   Bfn.  Coefficient  Atom+Function         Bfn.  Coefficient  Atom+Function  
  ----- ------------  ---------------      ----- ------------  ---------------
   164      3.852482  10 H  s               241      3.706068  15 H  s         
   207     -3.393513  13 H  s               149      3.334459   9 C  pz        
   260      3.277428  17 C  s               552      3.199742  33 C  s         
   504     -3.068479  30 H  s               361      2.738468  22 C  py        
   471     -2.691602  28 C  s                37      2.154822   3 H  s         

 Vector   87  Occ=0.000000D+00  E= 7.087062D-02
              MO Center=  8.7D-01,  1.3D+00,  6.9D-01, r^2= 4.6D+01
   Bfn.  Coefficient  Atom+Function         Bfn.  Coefficient  Atom+Function  
  ----- ------------  ---------------      ----- ------------  ---------------
   504      4.662937  30 H  s               552      4.262476  33 C  s         
    56      4.158375   5 C  s               174     -3.621667  11 C  s         
    37      3.383539   3 H  s               602     -3.242337  35 N  s         
   217      2.828728  14 C  s               241     -2.791877  15 H  s         
   362     -2.759358  22 C  pz              130     -2.694366   8 H  s         

 Vector   88  Occ=0.000000D+00  E= 7.248550D-02
              MO Center= -1.1D+00, -6.7D-01, -3.5D-01, r^2= 4.3D+01
   Bfn.  Coefficient  Atom+Function         Bfn.  Coefficient  Atom+Function  
  ----- ------------  ---------------      ----- ------------  ---------------
   198      5.579747  12 H  s               164     -4.200635  10 H  s         
   260      3.530203  17 C  s                 3      3.319358   1 H  s         
[...]
   216     -7.861454  14 C  s                56      7.099793   5 C  s         
   217     -7.013431  14 C  s               181     -6.197808  11 C  px        
   173      6.070171  11 C  s               206     -6.091488  13 H  s         

 Vector  187  Occ=0.000000D+00  E= 4.374681D-01
              MO Center=  5.0D-01, -1.7D+00, -4.3D-01, r^2= 1.8D+01
   Bfn.  Coefficient  Atom+Function         Bfn.  Coefficient  Atom+Function  
  ----- ------------  ---------------      ----- ------------  ---------------
   174    -18.179209  11 C  s                56     17.701492   5 C  s         
   471    -15.812301  28 C  s               113    -12.366432   7 N  px        
   260     11.083867  17 C  s               552     11.116634  33 C  s         
    63     -8.354066   5 C  px              444     -7.062474  26 C  px        
   403      6.416961  24 N  s                36     -5.206566   3 H  s         

 Vector  188  Occ=0.000000D+00  E= 4.420855D-01
              MO Center= -4.7D-01, -3.3D-01,  2.0D-01, r^2= 2.1D+01
   Bfn.  Coefficient  Atom+Function         Bfn.  Coefficient  Atom+Function  
  ----- ------------  ---------------      ----- ------------  ---------------
   403     10.065755  24 N  s                56      9.427993   5 C  s         
   174     -9.467585  11 C  s               113     -6.657049   7 N  px        
   471     -5.484745  28 C  s               360     -4.803360  22 C  px        
   241     -4.395697  15 H  s               225      4.031218  14 C  py        
   147     -3.710521   9 C  px              552     -3.513502  33 C  s         

 Vector  189  Occ=0.000000D+00  E= 4.480374D-01
              MO Center= -8.8D-02,  9.9D-01,  2.6D-01, r^2= 2.1D+01
   Bfn.  Coefficient  Atom+Function         Bfn.  Coefficient  Atom+Function  
  ----- ------------  ---------------      ----- ------------  ---------------
   552     24.081137  33 C  s               602    -13.245772  35 N  s         
   444    -11.435492  26 C  px              217     10.849479  14 C  s         
   106     -9.706420   7 N  s               471     -9.356905  28 C  s         
   361     -6.823597  22 C  py              437      6.374283  26 C  s         
   149      5.797749   9 C  pz              182      5.267329  11 C  py        

 Vector  190  Occ=0.000000D+00  E= 4.531996D-01
              MO Center=  8.1D-01, -2.5D-01, -1.0D-01, r^2= 2.1D+01
   Bfn.  Coefficient  Atom+Function         Bfn.  Coefficient  Atom+Function  
  ----- ------------  ---------------      ----- ------------  ---------------
    56     15.957706   5 C  s               147    -15.168423   9 C  px        
   552    -13.557817  33 C  s               360     10.065116  22 C  px        
   403      8.919041  24 N  s               149     -8.020096   9 C  pz        
   181     -7.469666  11 C  px              174     -7.413085  11 C  s         
   217     -7.318518  14 C  s               106      7.180556   7 N  s         

 Vector  191  Occ=0.000000D+00  E= 4.565817D-01
              MO Center=  1.8D-01, -5.8D-01, -2.5D-01, r^2= 2.1D+01
   Bfn.  Coefficient  Atom+Function         Bfn.  Coefficient  Atom+Function  
  ----- ------------  ---------------      ----- ------------  ---------------
   217     12.716591  14 C  s               552     10.245553  33 C  s         
   174     -9.515611  11 C  s               471     -9.269117  28 C  s         
   360     -8.964399  22 C  px              147      7.626304   9 C  px        
   362     -7.108975  22 C  pz              412      6.839310  24 N  pz        
   602     -6.673392  35 N  s               445      6.450322  26 C  py        

 Vector  192  Occ=0.000000D+00  E= 4.586455D-01
              MO Center=  5.5D-01,  5.2D-01,  2.5D-01, r^2= 1.9D+01
   Bfn.  Coefficient  Atom+Function         Bfn.  Coefficient  Atom+Function  
  ----- ------------  ---------------      ----- ------------  ---------------
   310     10.070576  19 N  s               174     -6.263394  11 C  s         
   106     -6.230776   7 N  s               163      4.690802  10 H  s         
   362      4.654443  22 C  pz              460     -4.404649  27 H  s         
   471      4.344854  28 C  s                12     -3.823555   2 C  s         
   140     -3.807827   9 C  s                64      3.734552   5 C  py        

 Vector  193  Occ=0.000000D+00  E= 4.606511D-01
              MO Center= -6.3D-01, -4.6D-01,  2.3D-01, r^2= 2.0D+01
   Bfn.  Coefficient  Atom+Function         Bfn.  Coefficient  Atom+Function  
  ----- ------------  ---------------      ----- ------------  ---------------
   403     19.798475  24 N  s               174    -17.031000  11 C  s         
   552    -15.494074  33 C  s               217     12.751656  14 C  s         
   361    -10.851165  22 C  py              260    -10.162370  17 C  s         
   310      8.871403  19 N  s               360     -7.101595  22 C  px        
    56      6.242846   5 C  s               602      5.958269  35 N  s         

 Vector  194  Occ=0.000000D+00  E= 4.683908D-01
              MO Center=  5.2D-01, -3.6D-01,  4.7D-01, r^2= 2.1D+01
   Bfn.  Coefficient  Atom+Function         Bfn.  Coefficient  Atom+Function  
  ----- ------------  ---------------      ----- ------------  ---------------
   552     11.407634  33 C  s               471     -7.631376  28 C  s         
   360      7.051602  22 C  px               45      6.018379   4 H  s         
   503      5.693248  30 H  s               361     -5.653590  22 C  py        
    12     -5.595014   2 C  s               378     -5.408571  23 O  s         
   106     -4.870824   7 N  s               559     -4.714572  33 C  px        

 Vector  195  Occ=0.000000D+00  E= 4.725958D-01
              MO Center= -3.9D-02,  1.7D-02, -9.4D-02, r^2= 2.1D+01
   Bfn.  Coefficient  Atom+Function         Bfn.  Coefficient  Atom+Function  
  ----- ------------  ---------------      ----- ------------  ---------------
   174     15.804600  11 C  s                56    -10.097572   5 C  s         
   217     -9.956713  14 C  s               113      9.299972   7 N  px        
   173      8.227402  11 C  s               197     -7.553556  12 H  s         
   403     -6.501300  24 N  s               149      5.425638   9 C  pz        
   206     -4.578312  13 H  s               140      4.423887   9 C  s         

 Vector  196  Occ=0.000000D+00  E= 4.754397D-01
              MO Center= -1.4D-01, -1.1D+00,  5.1D-01, r^2= 2.1D+01
   Bfn.  Coefficient  Atom+Function         Bfn.  Coefficient  Atom+Function  
  ----- ------------  ---------------      ----- ------------  ---------------
   174     22.652869  11 C  s               260    -17.187619  17 C  s         
   217    -16.253591  14 C  s               310     12.231040  19 N  s         
   361      8.242604  22 C  py              353      7.925772  22 C  s         
   139      7.066250   9 C  s               183      7.009392  11 C  pz        
   411      6.606328  24 N  py               45     -6.570028   4 H  s         

 Vector  197  Occ=0.000000D+00  E= 4.811074D-01
              MO Center= -5.0D-02,  6.1D-01, -2.4D-01, r^2= 1.9D+01
   Bfn.  Coefficient  Atom+Function         Bfn.  Coefficient  Atom+Function  
  ----- ------------  ---------------      ----- ------------  ---------------
   471     20.633463  28 C  s               403     -9.378552  24 N  s         
   552     -8.851767  33 C  s               494     -8.216476  29 H  s         
   412      8.053356  24 N  pz              106      7.567116   7 N  s         
   361      7.131277  22 C  py              113     -6.922551   7 N  px        
   217     -6.384361  14 C  s               460     -6.128057  27 H  s         

 Vector  198  Occ=0.000000D+00  E= 4.829125D-01
              MO Center= -1.6D-01,  6.2D-01, -1.9D-01, r^2= 2.1D+01
   Bfn.  Coefficient  Atom+Function         Bfn.  Coefficient  Atom+Function  
  ----- ------------  ---------------      ----- ------------  ---------------
   552     23.204922  33 C  s               403    -12.482851  24 N  s         
   260     11.160910  17 C  s               353     -9.926476  22 C  s         
   602     -9.530670  35 N  s               217      8.878640  14 C  s         
   310     -8.483176  19 N  s               148      7.677349   9 C  py        
   174     -7.195696  11 C  s               515     -7.108122  31 S  s         

 Vector  199  Occ=0.000000D+00  E= 4.885539D-01
              MO Center= -2.6D-01,  8.9D-02,  5.4D-02, r^2= 2.2D+01
   Bfn.  Coefficient  Atom+Function         Bfn.  Coefficient  Atom+Function  
  ----- ------------  ---------------      ----- ------------  ---------------
   174     14.018691  11 C  s               260    -11.242059  17 C  s         
   310      8.384634  19 N  s               362     -7.969434  22 C  pz        
   197     -7.492456  12 H  s               445     -7.477038  26 C  py        
   217     -7.235343  14 C  s               403     -6.271568  24 N  s         
    56     -5.473512   5 C  s               479      5.090909  28 C  py        

 Vector  200  Occ=0.000000D+00  E= 4.937141D-01
              MO Center= -1.0D+00,  4.4D-01, -7.7D-02, r^2= 2.2D+01
   Bfn.  Coefficient  Atom+Function         Bfn.  Coefficient  Atom+Function  
  ----- ------------  ---------------      ----- ------------  ---------------
   174     34.183983  11 C  s               217    -33.908857  14 C  s         
   471    -17.297274  28 C  s               353     13.876327  22 C  s         
   361     12.923035  22 C  py               56    -11.450625   5 C  s         
   445     11.302847  26 C  py              140      9.525102   9 C  s         
   206     -8.792322  13 H  s               173      8.307404  11 C  s         

 Vector  201  Occ=0.000000D+00  E= 4.965422D-01
              MO Center= -2.8D-01,  3.7D-02,  2.9D-01, r^2= 2.1D+01
   Bfn.  Coefficient  Atom+Function         Bfn.  Coefficient  Atom+Function  
  ----- ------------  ---------------      ----- ------------  ---------------
   260     25.438775  17 C  s               174     17.800762  11 C  s         
   217    -15.125698  14 C  s               310    -13.851154  19 N  s         
   552      8.990677  33 C  s               412      8.728223  24 N  pz        
   403     -8.407213  24 N  s                56     -7.581066   5 C  s         
   148      6.566841   9 C  py              216      6.319098  14 C  s         

 Vector  202  Occ=0.000000D+00  E= 4.985382D-01
              MO Center=  3.7D-01, -5.0D-01,  6.4D-02, r^2= 1.8D+01
   Bfn.  Coefficient  Atom+Function         Bfn.  Coefficient  Atom+Function  
  ----- ------------  ---------------      ----- ------------  ---------------
   260     20.901366  17 C  s               310    -10.600659  19 N  s         
    56    -10.388873   5 C  s               552     -8.919670  33 C  s         
   361      8.130122  22 C  py              174      7.487302  11 C  s         
    13      7.007364   2 C  s               148      6.600753   9 C  py        
   217     -6.177891  14 C  s               216     -5.913434  14 C  s         

 Vector  203  Occ=0.000000D+00  E= 5.038086D-01
              MO Center=  4.6D-02, -2.6D-01, -3.0D-02, r^2= 1.8D+01
   Bfn.  Coefficient  Atom+Function         Bfn.  Coefficient  Atom+Function  
  ----- ------------  ---------------      ----- ------------  ---------------
   260     20.680694  17 C  s               471     16.473079  28 C  s         
   310    -13.449318  19 N  s               411     -8.480341  24 N  py        
   445     -8.129230  26 C  py              139     -7.915512   9 C  s         
   360      7.363181  22 C  px              148     -6.508730   9 C  py        
    56     -6.132171   5 C  s               386     -5.983514  23 O  py        


 center of mass
 --------------
 x =   0.00667281 y =   0.04864256 z =   0.00550618

 moments of inertia (a.u.)
 ------------------
        7422.668589575476           0.000000000002           0.000000000003
           0.000000000002        4051.610899985840          -0.000000000002
           0.000000000003          -0.000000000002        9409.643133677166

  Mulliken analysis of the total density
  --------------------------------------

    Atom       Charge   Shell Charges
 -----------   ------   -------------------------------------------------------
    1 H    1     0.85   0.76  0.12  0.00  0.03 -0.06
    2 C    6     6.13   2.01  0.66  0.24  0.01  2.07  0.99  0.01  0.06  0.10
    3 H    1     1.02   0.77  0.27  0.00  0.03 -0.05
    4 H    1     0.86   0.76  0.14 -0.01  0.03 -0.06
    5 C    6     5.14   2.01  0.68  0.08 -0.13  1.89  0.35  0.03  0.24 -0.01
    6 O    8     8.83   2.01  0.81  1.00  0.17  2.80  1.87  0.16  0.01 -0.01
    7 N    7     7.46   2.01  0.72  0.87 -0.20  2.45  1.43  0.09  0.05  0.03
    8 H    1     0.97   0.74  0.27 -0.03  0.06 -0.07
    9 C    6     6.37   2.01  0.66  0.18 -0.02  1.99  1.20  0.11  0.14  0.10
   10 H    1     1.27   0.79  0.43  0.01  0.03  0.02
   11 C    6     6.21   2.01  0.66  0.40  0.15  2.03  0.73 -0.02  0.09  0.16
   12 H    1     0.93   0.78  0.23  0.00  0.03 -0.10
   13 H    1     0.89   0.78  0.18 -0.01  0.03 -0.09
   14 C    6     6.22   2.01  0.66  0.50 -0.10  2.05  0.88  0.01  0.09  0.13
   15 H    1     0.95   0.78  0.20 -0.02  0.03 -0.04
   16 H    1     0.90   0.77  0.16 -0.00  0.03 -0.06
   17 C    6     4.71   2.01  0.68  0.05 -0.04  1.90 -0.08  0.05  0.24 -0.11
   18 O    8     8.89   2.01  0.81  1.03  0.21  2.81  1.86  0.15  0.02 -0.00
   19 N    7     7.16   2.01  0.72  0.74 -0.15  2.47  1.25  0.09  0.04 -0.03
   20 H    1     0.86   0.74  0.15 -0.01  0.06 -0.07
   21 H    1     1.01   0.76  0.22 -0.01  0.05 -0.01
   22 C    6     4.12   2.01  0.68 -0.17  0.03  1.88 -0.03  0.01  0.23 -0.54
   23 O    8     9.01   2.01  0.82  1.07  0.21  2.79  1.90  0.19  0.01  0.01
   24 N    7     7.47   2.01  0.72  0.90 -0.17  2.45  1.47 -0.04  0.05  0.09
   25 H    1     1.06   0.77  0.26 -0.00  0.05 -0.02
   26 C    6     6.36   2.01  0.66  0.11 -0.03  1.99  1.33  0.02  0.14  0.13
   27 H    1     1.20   0.78  0.42 -0.02  0.03 -0.00
   28 C    6     5.81   2.01  0.66  0.16 -0.05  1.99  0.91 -0.01  0.10  0.04
   29 H    1     1.06   0.77  0.28 -0.01  0.03 -0.01
   30 H    1     1.07   0.77  0.29  0.01  0.03 -0.03
   31 S   16    15.54   2.00  2.03  0.87  0.71  0.05  6.00  2.31  1.57  0.07  0.10 -0.18
   32 H    1     1.13   0.71  0.34  0.00  0.03  0.04
   33 C    6     4.68   2.01  0.68  0.15  0.05  1.88 -0.18  0.02  0.24 -0.16
   34 O    8     8.80   2.01  0.82  1.04  0.17  2.79  1.84  0.13  0.01 -0.00
   35 N    7     7.15   2.01  0.72  0.81 -0.21  2.46  1.23  0.10  0.04 -0.02
   36 H    1     1.01   0.76  0.23 -0.00  0.05 -0.03
   37 H    1     0.89   0.73  0.26 -0.04  0.06 -0.13

       Multipole analysis of the density wrt the origin
       ------------------------------------------------

     L   x y z        total         open         nuclear
     -   - - -        -----         ----         -------
     0   0 0 0      0.000000      0.000000    154.000000

     1   1 0 0     -0.666098      0.000000      0.000000
     1   0 1 0     -0.801536      0.000000     -0.000000
     1   0 0 1     -0.811632      0.000000      0.000000

     2   2 0 0    -88.372331      0.000000   1658.950287
     2   1 1 0    -12.105532      0.000000    -32.162760
     2   1 0 1     -0.692055      0.000000     -0.466095
     2   0 2 0   -106.289673      0.000000   3418.572700
     2   0 1 1     -4.870469      0.000000      6.120223
     2   0 0 2    -88.091519      0.000000    577.247486


 Task  times  cpu:    13539.8s     wall:    13580.7s


                                NWChem Input Module
                                -------------------


 Summary of allocated global arrays
-----------------------------------
  No active global arrays


MA_summarize_allocated_blocks: starting scan ...
MA_summarize_allocated_blocks: scan completed: 0 heap blocks, 0 stack blocks
MA usage statistics:

	allocation statistics:
					      heap	     stack
					      ----	     -----
	current number of blocks	         0	         0
	maximum number of blocks	        16	        14
	current total bytes		         0	         0
	maximum total bytes		    146648	  35431480
	maximum total K-bytes		       147	     35432
	maximum total M-bytes		         1	        36


                                     CITATION
                                     --------
                Please cite the following reference when publishing
                           results obtained with NWChem:

          E. Apra, E. J. Bylaska, W. A. de Jong, N. Govind, K. Kowalski,
       T. P. Straatsma, M. Valiev, H. J. J. van Dam, Y. Alexeev, J. Anchell,
       V. Anisimov, F. W. Aquino, R. Atta-Fynn, J. Autschbach, N. P. Bauman,
     J. C. Becca, D. E. Bernholdt, K. Bhaskaran-Nair, S. Bogatko, P. Borowski,
         J. Boschen, J. Brabec, A. Bruner, E. Cauet, Y. Chen, G. N. Chuev,
      C. J. Cramer, J. Daily, M. J. O. Deegan, T. H. Dunning Jr., M. Dupuis,
   K. G. Dyall, G. I. Fann, S. A. Fischer, A. Fonari, H. Fruchtl, L. Gagliardi,
      J. Garza, N. Gawande, S. Ghosh, K. Glaesemann, A. W. Gotz, J. Hammond,
       V. Helms, E. D. Hermes, K. Hirao, S. Hirata, M. Jacquelin, L. Jensen,
   B. G. Johnson, H. Jonsson, R. A. Kendall, M. Klemm, R. Kobayashi, V. Konkov,
      S. Krishnamoorthy, M. Krishnan, Z. Lin, R. D. Lins, R. J. Littlefield,
      A. J. Logsdail, K. Lopata, W. Ma, A. V. Marenich, J. Martin del Campo,
   D. Mejia-Rodriguez, J. E. Moore, J. M. Mullin, T. Nakajima, D. R. Nascimento,
    J. A. Nichols, P. J. Nichols, J. Nieplocha, A. Otero-de-la-Roza, B. Palmer,
    A. Panyala, T. Pirojsirikul, B. Peng, R. Peverati, J. Pittner, L. Pollack,
   R. M. Richard, P. Sadayappan, G. C. Schatz, W. A. Shelton, D. W. Silverstein,
   D. M. A. Smith, T. A. Soares, D. Song, M. Swart, H. L. Taylor, G. S. Thomas,
            V. Tipparaju, D. G. Truhlar, K. Tsemekhman, T. Van Voorhis,
      A. Vazquez-Mayagoitia, P. Verma, O. Villa, A. Vishnu, K. D. Vogiatzis,
        D. Wang, J. H. Weare, M. J. Williamson, T. L. Windus, K. Wolinski,
        A. T. Wong, Q. Wu, C. Yang, Q. Yu, M. Zacharias, Z. Zhang, Y. Zhao,
                                and R. J. Harrison
                        "NWChem: Past, present, and future
                         J. Chem. Phys. 152, 184102 (2020)
                               doi:10.1063/5.0004997

                                      AUTHORS
                                      -------
  E. Apra, E. J. Bylaska, N. Govind, K. Kowalski, M. Valiev, D. Mejia-Rodriguez,
       A. Kunitsa, N. P. Bauman, A. Panyala, W. A. de Jong, T. P. Straatsma,
   H. J. J. van Dam, D. Wang, T. L. Windus, J. Hammond, J. Autschbach, A. Woods,
    K. Bhaskaran-Nair, J. Brabec, K. Lopata, S. A. Fischer, S. Krishnamoorthy,
     M. Jacquelin, W. Ma, M. Klemm, O. Villa, Y. Chen, V. Anisimov, F. Aquino,
     S. Hirata, M. T. Hackler, E. Hermes, L. Jensen, J. E. Moore, J. C. Becca,
      V. Konjkov, T. Risthaus, M. Malagoli, A. Marenich, A. Otero-de-la-Roza,
        J. Mullin, P. Nichols, R. Peverati, J. Pittner, Y. Zhao, P.-D. Fan,
        A. Fonari, M. J. Williamson, R. J. Harrison, J. R. Rehr, M. Dupuis,
     D. Silverstein, D. M. A. Smith, J. Nieplocha, V. Tipparaju, M. Krishnan,
     B. E. Van Kuiken, A. Vazquez-Mayagoitia, M. Swart, Q. Wu, T. Van Voorhis,
     A. A. Auer, M. Nooijen, L. D. Crosby, E. Brown, G. Cisneros, G. I. Fann,
   H. Fruchtl, J. Garza, K. Hirao, R. A. Kendall, J. A. Nichols, K. Tsemekhman,
    K. Wolinski, J. Anchell, D. E. Bernholdt, P. Borowski, T. Clark, D. Clerc,
   H. Dachsel, M. J. O. Deegan, K. Dyall, D. Elwood, E. Glendening, M. Gutowski,
   A. C. Hess, J. Jaffe, B. G. Johnson, J. Ju, R. Kobayashi, R. Kutteh, Z. Lin,
   R. Littlefield, X. Long, B. Meng, T. Nakajima, S. Niu, L. Pollack, M. Rosing,
   K. Glaesemann, G. Sandrone, M. Stave, H. Taylor, G. Thomas, J. H. van Lenthe,
                               A. T. Wong, Z. Zhang.

 Total times  cpu:    13539.8s     wall:    13581.7s
