export TMOUT=5400
export TMPDIR=/tmp
export PTMPDIR=/tmp/ptmp
 argument  1 = inputs/GLN_CYS_1.nw



============================== echo of input deck ==============================
start GLN_CYS_1
geometry
H         14.43600        8.58200       -6.42900
C         13.76500        7.75100       -6.22500
H         14.20400        7.10400       -5.46700
H         13.59100        7.18000       -7.13500
C         12.44900        8.28500       -5.71100
O         12.05000        7.96800       -4.59800
N         11.77700        9.09400       -6.52700
H         12.15600        9.27300       -7.44500
C         10.46300        9.68000       -6.23800
H          9.88300        8.95000       -5.67300
C         10.62300       10.97600       -5.40700
H         11.63500       11.36900       -5.52000
H          9.94100       11.74200       -5.77900
C         10.32700       10.77300       -3.91000
H         11.02500       10.04800       -3.49500
H         10.48500       11.71900       -3.39200
C          8.89800       10.30700       -3.62900
O          8.04600       10.23600       -4.49900
N          8.57600        9.96500       -2.40200
H          7.63000        9.65700       -2.26700
H          9.26200        9.97200       -1.67100
C          9.68000        9.95500       -7.53200
O         10.26200        9.99800       -8.61600
N          8.36600       10.16700       -7.42200
H          7.96500       10.17600       -6.48600
C          7.44200       10.39500       -8.54300
H          7.70500        9.68900       -9.33200
C          6.01700       10.05400       -8.07300
H          5.33500       10.09700       -8.92400
H          5.99900        9.04400       -7.66000
S          5.45900       11.23100       -6.80800
H          5.40900       12.28900       -7.63300
C          7.54500       11.80000       -9.18900
O          6.54800       12.39200       -9.59100
N          8.73300       12.38200       -9.28600
H          8.78800       13.29700       -9.70000
H          9.55800       11.86800       -9.01300
end

basis
 * library aug-cc-pvdz
end

echo

scf
 direct
end

task scf energy
================================================================================


                                         
                                         


             Northwest Computational Chemistry Package (NWChem) 7.2.0
             --------------------------------------------------------


                    Environmental Molecular Sciences Laboratory
                       Pacific Northwest National Laboratory
                                Richland, WA 99352

                              Copyright (c) 1994-2022
                       Pacific Northwest National Laboratory
                            Battelle Memorial Institute

             NWChem is an open-source computational chemistry package
                        distributed under the terms of the
                      Educational Community License (ECL) 2.0
             A copy of the license is included with this distribution
                              in the LICENSE.TXT file

                                  ACKNOWLEDGMENT
                                  --------------

            This software and its documentation were developed at the
            EMSL at Pacific Northwest National Laboratory, a multiprogram
            national laboratory, operated for the U.S. Department of Energy
            by Battelle under Contract Number DE-AC05-76RL01830. Support
            for this work was provided by the Department of Energy Office
            of Biological and Environmental Research, Office of Basic
            Energy Sciences, and the Office of Advanced Scientific Computing.


           Job information
           ---------------

    hostname        = nova18-41
    program         = /opt/rit/el9/20230413/app/linux-rhel9-x86_64_v3/gcc-11.2.1/nwchem-7.2.0-oxtctbuhfuzyfaoziquq6bki22grib3g/bin/nwchem
    date            = Thu Jul  3 13:38:33 2025

    compiled        = Wed_May_17_23:46:39_2023
    source          = /tmp/root/spack-stage/spack-stage-nwchem-7.2.0-oxtctbuhfuzyfaoziquq6bki22grib3g/spack-src
    nwchem branch   = 7.2.0
    nwchem revision = d0d141fd
    ga revision     = 5.8.0
    use scalapack   = T
    input           = inputs/GLN_CYS_1.nw
    prefix          = GLN_CYS_1.
    data base       = ./GLN_CYS_1.db
    status          = startup
    nproc           =        1
    time left       =     -1s



           Memory information
           ------------------

    heap     =   26214396 doubles =    200.0 Mbytes
    stack    =   26214401 doubles =    200.0 Mbytes
    global   =   52428800 doubles =    400.0 Mbytes (distinct from heap & stack)
    total    =  104857597 doubles =    800.0 Mbytes
    verify   = yes
    hardfail = no 


           Directory information
           ---------------------

  0 permanent = .
  0 scratch   = .




                                NWChem Input Module
                                -------------------



 Scaling coordinates for geometry "geometry" by  1.889725989
 (inverse scale =  0.529177249)

 C1  symmetry detected

          ------
          auto-z
          ------
  no constraints, skipping    0.0000000000000000     
  no constraints, skipping    0.0000000000000000     


                             Geometry "geometry" -> ""
                             -------------------------

 Output coordinates in angstroms (scale by  1.889725989 to convert to a.u.)

  No.       Tag          Charge          X              Y              Z
 ---- ---------------- ---------- -------------- -------------- --------------
    1 H                    1.0000     2.64513679    -4.89343895     0.43939295
    2 C                    6.0000     2.18780827    -4.78520544    -0.54119572
    3 H                    1.0000     1.78810079    -5.74460945    -0.86626783
    4 H                    1.0000     2.92588723    -4.43548021    -1.26046528
    5 C                    6.0000     1.05801887    -3.78619815    -0.45892576
    6 O                    8.0000    -0.08449822    -4.12658572    -0.73686461
    7 N                    7.0000     1.38267022    -2.55253610    -0.07866209
    8 H                    1.0000     2.35482050    -2.34316163     0.09307075
    9 C                    6.0000     0.44567563    -1.42743668     0.01985405
   10 H                    1.0000    -0.28579858    -1.52404605    -0.78272748
   11 C                    6.0000    -0.27579241    -1.44657423     1.38912196
   12 H                    1.0000     0.29853423    -2.03720995     2.10512501
   13 H                    1.0000    -0.33827975    -0.43379102     1.78990808
   14 C                    6.0000    -1.70725959    -2.00719040     1.30883991
   15 H                    1.0000    -1.67666887    -3.03717805     0.95777916
   16 H                    1.0000    -2.13671665    -2.01132675     2.31071491
   17 C                    6.0000    -2.62901468    -1.19660286     0.39698828
   18 O                    8.0000    -2.29207470    -0.13740831    -0.10542924
   19 N                    7.0000    -3.83069685    -1.66182166     0.14065171
   20 H                    1.0000    -4.39670470    -1.10065311    -0.46986445
   21 H                    1.0000    -4.12532264    -2.54871791     0.50344184
   22 C                    6.0000     1.16283053    -0.08561698    -0.20005216
   23 O                    8.0000     2.38774290    -0.00977960    -0.10275165
   24 N                    7.0000     0.40417391     0.97958346    -0.47102848
   25 H                    1.0000    -0.60611728     0.85202790    -0.47542054
   26 C                    6.0000     0.90451994     2.33160897    -0.76099721
   27 H                    1.0000     1.76231296     2.22674965    -1.42682125
   28 C                    6.0000    -0.18682779     3.09737457    -1.52935205
   29 H                    1.0000     0.21069314     4.05786443    -1.86193338
   30 H                    1.0000    -0.49111567     2.52170289    -2.40513970
   31 S                   16.0000    -1.63237506     3.39043577    -0.47037791
   32 H                    1.0000    -1.00759027     4.23510511     0.36548492
   33 C                    6.0000     1.42834491     3.10513031     0.47562001
   34 O                    8.0000     1.24678422     4.31279573     0.59668581
   35 N                    7.0000     2.06417288     2.44164980     1.43217289
   36 H                    1.0000     2.39352368     2.95171686     2.23404921
   37 H                    1.0000     2.26760927     1.46143395     1.30125106

      Atomic Mass 
      ----------- 

      H                  1.007825
      C                 12.000000
      O                 15.994910
      N                 14.003070
      S                 31.972070


 Effective nuclear repulsion energy (a.u.)    1683.0707366026

            Nuclear Dipole moment (a.u.) 
            ----------------------------
        X                 Y               Z
 ---------------- ---------------- ----------------
    -0.0000000000     0.0000000000    -0.0000000000



                                Z-matrix (autoz)
                                -------- 

 Units are Angstrom for bonds and degrees for angles

      Type          Name      I     J     K     L     M      Value
      ----------- --------  ----- ----- ----- ----- ----- ----------
    1 Stretch                  1     2                       1.08739
    2 Stretch                  2     3                       1.08899
    3 Stretch                  2     4                       1.08831
    4 Stretch                  2     5                       1.51037
    5 Stretch                  5     6                       1.22412
    6 Stretch                  5     7                       1.33114
    7 Stretch                  7     8                       1.00916
    8 Stretch                  7     9                       1.46749
    9 Stretch                  9    10                       1.09019
   10 Stretch                  9    11                       1.54783
   11 Stretch                  9    22                       1.53725
   12 Stretch                 11    12                       1.09150
   13 Stretch                 11    13                       1.09099
   14 Stretch                 11    14                       1.53943
   15 Stretch                 14    15                       1.08860
   16 Stretch                 14    16                       1.09005
   17 Stretch                 14    17                       1.52910
   18 Stretch                 17    18                       1.21977
   19 Stretch                 17    19                       1.31384
   20 Stretch                 19    20                       1.00399
   21 Stretch                 19    21                       1.00250
   22 Stretch                 22    23                       1.23111
   23 Stretch                 22    24                       1.33553
   24 Stretch                 24    25                       1.01832
   25 Stretch                 24    26                       1.47051
   26 Stretch                 26    27                       1.09093
   27 Stretch                 26    28                       1.53877
   28 Stretch                 26    33                       1.54982
   29 Stretch                 28    29                       1.09141
   30 Stretch                 28    30                       1.09133
   31 Stretch                 28    31                       1.81574
   32 Stretch                 31    32                       1.34257
   33 Stretch                 33    34                       1.22722
   34 Stretch                 33    35                       1.32645
   35 Stretch                 35    36                       1.00581
   36 Stretch                 35    37                       1.00963
   37 Bend                     1     2     3               109.62535
   38 Bend                     1     2     4               110.04445
   39 Bend                     1     2     5               109.34861
   40 Bend                     2     5     6               120.12375
   41 Bend                     2     5     7               116.49529
   42 Bend                     3     2     4               109.55725
   43 Bend                     3     2     5               108.93094
   44 Bend                     4     2     5               109.31434
   45 Bend                     5     7     8               118.41410
   46 Bend                     5     7     9               125.02942
   47 Bend                     6     5     7               123.38083
   48 Bend                     7     9    10               108.12226
   49 Bend                     7     9    11               110.33603
   50 Bend                     7     9    22               111.20703
   51 Bend                     8     7     9               116.39745
   52 Bend                     9    11    12               109.98266
   53 Bend                     9    11    13               109.88900
   54 Bend                     9    11    14               113.06628
   55 Bend                     9    22    23               120.43976
   56 Bend                     9    22    24               117.40030
   57 Bend                    10     9    11               109.71941
   58 Bend                    10     9    22               106.56194
   59 Bend                    11     9    22               110.78068
   60 Bend                    11    14    15               109.58783
   61 Bend                    11    14    16               108.65084
   62 Bend                    11    14    17               113.48956
   63 Bend                    12    11    13               106.94718
   64 Bend                    12    11    14               109.05221
   65 Bend                    13    11    14               107.69591
   66 Bend                    14    17    18               122.64490
   67 Bend                    14    17    19               118.68468
   68 Bend                    15    14    16               107.69097
   69 Bend                    15    14    17               109.03790
   70 Bend                    16    14    17               108.21670
   71 Bend                    17    19    20               115.87164
   72 Bend                    17    19    21               120.76084
   73 Bend                    18    17    19               118.67002
   74 Bend                    20    19    21               123.28864
   75 Bend                    22    24    25               117.68085
   76 Bend                    22    24    26               125.45390
   77 Bend                    23    22    24               122.14755
   78 Bend                    24    26    27               107.42849
   79 Bend                    24    26    28               108.34236
   80 Bend                    24    26    33               114.61707
   81 Bend                    25    24    26               116.86486
   82 Bend                    26    28    29               109.37748
   83 Bend                    26    28    30               109.63068
   84 Bend                    26    28    31               110.71606
   85 Bend                    26    33    34               121.32281
   86 Bend                    26    33    35               119.19395
   87 Bend                    27    26    28               107.50244
   88 Bend                    27    26    33               105.61660
   89 Bend                    28    26    33               112.93940
   90 Bend                    28    31    32                95.40302
   91 Bend                    29    28    30               108.73759
   92 Bend                    29    28    31               109.00501
   93 Bend                    30    28    31               109.34120
   94 Bend                    33    35    36               118.56964
   95 Bend                    33    35    37               119.25477
   96 Bend                    34    33    35               119.47188
   97 Bend                    36    35    37               121.98862
   98 Torsion                  1     2     5     6        -119.61898
   99 Torsion                  1     2     5     7          60.50529
  100 Torsion                  2     5     7     8           2.55257
  101 Torsion                  2     5     7     9         177.79212
  102 Torsion                  3     2     5     6           0.16727
  103 Torsion                  3     2     5     7        -179.70846
  104 Torsion                  4     2     5     6         119.85034
  105 Torsion                  4     2     5     7         -60.02538
  106 Torsion                  5     7     9    10         -35.36850
  107 Torsion                  5     7     9    11          84.62644
  108 Torsion                  5     7     9    22        -152.02922
  109 Torsion                  6     5     7     8        -177.31870
  110 Torsion                  6     5     7     9          -2.07916
  111 Torsion                  7     9    11    12          20.47155
  112 Torsion                  7     9    11    13         137.94832
  113 Torsion                  7     9    11    14        -101.69420
  114 Torsion                  7     9    22    23         -17.63013
  115 Torsion                  7     9    22    24         163.62323
  116 Torsion                  8     7     9    10         139.95734
  117 Torsion                  8     7     9    11        -100.04772
  118 Torsion                  8     7     9    22          23.29662
  119 Torsion                  9    11    14    15          61.16629
  120 Torsion                  9    11    14    16         178.58782
  121 Torsion                  9    11    14    17         -60.98540
  122 Torsion                  9    22    24    25           2.67786
  123 Torsion                  9    22    24    26        -177.55580
  124 Torsion                 10     9    11    12         139.49923
  125 Torsion                 10     9    11    13        -103.02400
  126 Torsion                 10     9    11    14          17.33348
  127 Torsion                 10     9    22    23        -135.24157
  128 Torsion                 10     9    22    24          46.01178
  129 Torsion                 11     9    22    23         105.45953
  130 Torsion                 11     9    22    24         -73.28711
  131 Torsion                 11    14    17    18          -6.92657
  132 Torsion                 11    14    17    19         172.83838
  133 Torsion                 12    11     9    22        -103.12028
  134 Torsion                 12    11    14    15         -61.51865
  135 Torsion                 12    11    14    16          55.90287
  136 Torsion                 12    11    14    17         176.32966
  137 Torsion                 13    11     9    22          14.35649
  138 Torsion                 13    11    14    15        -177.23310
  139 Torsion                 13    11    14    16         -59.81157
  140 Torsion                 13    11    14    17          60.61521
  141 Torsion                 14    11     9    22         134.71398
  142 Torsion                 14    17    19    20        -179.40764
  143 Torsion                 14    17    19    21          -2.53344
  144 Torsion                 15    14    17    18        -129.38306
  145 Torsion                 15    14    17    19          50.38189
  146 Torsion                 16    14    17    18         113.74539
  147 Torsion                 16    14    17    19         -66.48966
  148 Torsion                 18    17    19    20           0.36679
  149 Torsion                 18    17    19    21         177.24098
  150 Torsion                 22    24    26    27          42.47586
  151 Torsion                 22    24    26    28         158.33557
  152 Torsion                 22    24    26    33         -74.53763
  153 Torsion                 23    22    24    25        -176.04586
  154 Torsion                 23    22    24    26           3.72048
  155 Torsion                 24    26    28    29        -172.99613
  156 Torsion                 24    26    28    30         -53.85324
  157 Torsion                 24    26    28    31          66.86603
  158 Torsion                 24    26    33    34        -142.78050
  159 Torsion                 24    26    33    35          35.98644
  160 Torsion                 25    24    26    27        -137.75609
  161 Torsion                 25    24    26    28         -21.89638
  162 Torsion                 25    24    26    33         105.23042
  163 Torsion                 26    28    31    32          67.18034
  164 Torsion                 26    33    35    36        -179.50541
  165 Torsion                 26    33    35    37           5.36350
  166 Torsion                 27    26    28    29         -57.18448
  167 Torsion                 27    26    28    30          61.95841
  168 Torsion                 27    26    28    31        -177.32232
  169 Torsion                 27    26    33    34          99.17474
  170 Torsion                 27    26    33    35         -82.05831
  171 Torsion                 28    26    33    34         -18.04406
  172 Torsion                 28    26    33    35         160.72289
  173 Torsion                 29    28    26    33          58.91741
  174 Torsion                 29    28    31    32         -53.17981
  175 Torsion                 30    28    26    33         178.06030
  176 Torsion                 30    28    31    32        -171.92860
  177 Torsion                 31    28    26    33         -61.22043
  178 Torsion                 34    33    35    36          -0.71531
  179 Torsion                 34    33    35    37        -175.84640


            XYZ format geometry
            -------------------
    37
 geometry
 H                     2.64513679    -4.89343895     0.43939295
 C                     2.18780827    -4.78520544    -0.54119572
 H                     1.78810079    -5.74460945    -0.86626783
 H                     2.92588723    -4.43548021    -1.26046528
 C                     1.05801887    -3.78619815    -0.45892576
 O                    -0.08449822    -4.12658572    -0.73686461
 N                     1.38267022    -2.55253610    -0.07866209
 H                     2.35482050    -2.34316163     0.09307075
 C                     0.44567563    -1.42743668     0.01985405
 H                    -0.28579858    -1.52404605    -0.78272748
 C                    -0.27579241    -1.44657423     1.38912196
 H                     0.29853423    -2.03720995     2.10512501
 H                    -0.33827975    -0.43379102     1.78990808
 C                    -1.70725959    -2.00719040     1.30883991
 H                    -1.67666887    -3.03717805     0.95777916
 H                    -2.13671665    -2.01132675     2.31071491
 C                    -2.62901468    -1.19660286     0.39698828
 O                    -2.29207470    -0.13740831    -0.10542924
 N                    -3.83069685    -1.66182166     0.14065171
 H                    -4.39670470    -1.10065311    -0.46986445
 H                    -4.12532264    -2.54871791     0.50344184
 C                     1.16283053    -0.08561698    -0.20005216
 O                     2.38774290    -0.00977960    -0.10275165
 N                     0.40417391     0.97958346    -0.47102848
 H                    -0.60611728     0.85202790    -0.47542054
 C                     0.90451994     2.33160897    -0.76099721
 H                     1.76231296     2.22674965    -1.42682125
 C                    -0.18682779     3.09737457    -1.52935205
 H                     0.21069314     4.05786443    -1.86193338
 H                    -0.49111567     2.52170289    -2.40513970
 S                    -1.63237506     3.39043577    -0.47037791
 H                    -1.00759027     4.23510511     0.36548492
 C                     1.42834491     3.10513031     0.47562001
 O                     1.24678422     4.31279573     0.59668581
 N                     2.06417288     2.44164980     1.43217289
 H                     2.39352368     2.95171686     2.23404921
 H                     2.26760927     1.46143395     1.30125106

 ==============================================================================
                                internuclear distances
 ------------------------------------------------------------------------------
       center one      |      center two      | atomic units |  angstroms
 ------------------------------------------------------------------------------
    2 C                |   1 H                |     2.05487  |     1.08739
    3 H                |   2 C                |     2.05789  |     1.08899
    4 H                |   2 C                |     2.05661  |     1.08831
    5 C                |   2 C                |     2.85418  |     1.51037
    6 O                |   5 C                |     2.31324  |     1.22412
    7 N                |   5 C                |     2.51548  |     1.33114
    8 H                |   7 N                |     1.90704  |     1.00916
    9 C                |   7 N                |     2.77315  |     1.46749
   10 H                |   9 C                |     2.06017  |     1.09019
   11 C                |   9 C                |     2.92497  |     1.54783
   12 H                |  11 C                |     2.06263  |     1.09150
   13 H                |  11 C                |     2.06168  |     1.09099
   14 C                |  11 C                |     2.90909  |     1.53943
   15 H                |  14 C                |     2.05716  |     1.08860
   16 H                |  14 C                |     2.05989  |     1.09005
   17 C                |  14 C                |     2.88959  |     1.52910
   18 O                |  17 C                |     2.30504  |     1.21977
   19 N                |  17 C                |     2.48280  |     1.31384
   20 H                |  19 N                |     1.89727  |     1.00399
   21 H                |  19 N                |     1.89445  |     1.00250
   22 C                |   9 C                |     2.90499  |     1.53725
   23 O                |  22 C                |     2.32646  |     1.23111
   24 N                |  22 C                |     2.52379  |     1.33553
   25 H                |  24 N                |     1.92435  |     1.01832
   26 C                |  24 N                |     2.77886  |     1.47051
   27 H                |  26 C                |     2.06156  |     1.09093
   28 C                |  26 C                |     2.90785  |     1.53877
   29 H                |  28 C                |     2.06246  |     1.09141
   30 H                |  28 C                |     2.06231  |     1.09133
   31 S                |  28 C                |     3.43125  |     1.81574
   32 H                |  31 S                |     2.53709  |     1.34257
   33 C                |  26 C                |     2.92874  |     1.54982
   34 O                |  33 C                |     2.31912  |     1.22722
   35 N                |  33 C                |     2.50663  |     1.32645
   36 H                |  35 N                |     1.90070  |     1.00581
   37 H                |  35 N                |     1.90792  |     1.00963
 ------------------------------------------------------------------------------
                         number of included internuclear distances:         36
 ==============================================================================



 ==============================================================================
                                 internuclear angles
 ------------------------------------------------------------------------------
        center 1       |       center 2       |       center 3       |  degrees
 ------------------------------------------------------------------------------
    1 H                |   2 C                |   3 H                |   109.63
    1 H                |   2 C                |   4 H                |   110.04
    1 H                |   2 C                |   5 C                |   109.35
    3 H                |   2 C                |   4 H                |   109.56
    3 H                |   2 C                |   5 C                |   108.93
    4 H                |   2 C                |   5 C                |   109.31
    2 C                |   5 C                |   6 O                |   120.12
    2 C                |   5 C                |   7 N                |   116.50
    6 O                |   5 C                |   7 N                |   123.38
    5 C                |   7 N                |   8 H                |   118.41
    5 C                |   7 N                |   9 C                |   125.03
    8 H                |   7 N                |   9 C                |   116.40
    7 N                |   9 C                |  10 H                |   108.12
    7 N                |   9 C                |  11 C                |   110.34
    7 N                |   9 C                |  22 C                |   111.21
   10 H                |   9 C                |  11 C                |   109.72
   10 H                |   9 C                |  22 C                |   106.56
   11 C                |   9 C                |  22 C                |   110.78
    9 C                |  11 C                |  12 H                |   109.98
    9 C                |  11 C                |  13 H                |   109.89
    9 C                |  11 C                |  14 C                |   113.07
   12 H                |  11 C                |  13 H                |   106.95
   12 H                |  11 C                |  14 C                |   109.05
   13 H                |  11 C                |  14 C                |   107.70
   11 C                |  14 C                |  15 H                |   109.59
   11 C                |  14 C                |  16 H                |   108.65
   11 C                |  14 C                |  17 C                |   113.49
   15 H                |  14 C                |  16 H                |   107.69
   15 H                |  14 C                |  17 C                |   109.04
   16 H                |  14 C                |  17 C                |   108.22
   14 C                |  17 C                |  18 O                |   122.64
   14 C                |  17 C                |  19 N                |   118.68
   18 O                |  17 C                |  19 N                |   118.67
   17 C                |  19 N                |  20 H                |   115.87
   17 C                |  19 N                |  21 H                |   120.76
   20 H                |  19 N                |  21 H                |   123.29
    9 C                |  22 C                |  23 O                |   120.44
    9 C                |  22 C                |  24 N                |   117.40
   23 O                |  22 C                |  24 N                |   122.15
   22 C                |  24 N                |  25 H                |   117.68
   22 C                |  24 N                |  26 C                |   125.45
   25 H                |  24 N                |  26 C                |   116.86
   24 N                |  26 C                |  27 H                |   107.43
   24 N                |  26 C                |  28 C                |   108.34
   24 N                |  26 C                |  33 C                |   114.62
   27 H                |  26 C                |  28 C                |   107.50
   27 H                |  26 C                |  33 C                |   105.62
   28 C                |  26 C                |  33 C                |   112.94
   26 C                |  28 C                |  29 H                |   109.38
   26 C                |  28 C                |  30 H                |   109.63
   26 C                |  28 C                |  31 S                |   110.72
   29 H                |  28 C                |  30 H                |   108.74
   29 H                |  28 C                |  31 S                |   109.01
   30 H                |  28 C                |  31 S                |   109.34
   28 C                |  31 S                |  32 H                |    95.40
   26 C                |  33 C                |  34 O                |   121.32
   26 C                |  33 C                |  35 N                |   119.19
   34 O                |  33 C                |  35 N                |   119.47
   33 C                |  35 N                |  36 H                |   118.57
   33 C                |  35 N                |  37 H                |   119.25
   36 H                |  35 N                |  37 H                |   121.99
 ------------------------------------------------------------------------------
                            number of included internuclear angles:         61
 ==============================================================================



  library name resolved from: environment
  library file name is: </opt/rit/el9/20230413/app/linux-rhel9-x86_64_v3/gcc-11.2.1/nwchem-7.2.0-oxtctbuhfuzyfaoziquq6bki22grib3g/share/nwchem/libraries/>
  


 Summary of "ao basis" -> "" (cartesian)
 ------------------------------------------------------------------------------
       Tag                 Description            Shells   Functions and Types
 ---------------- ------------------------------  ------  ---------------------
 *                        aug-cc-pvdz                 on all atoms 


                      Basis "ao basis" -> "ao basis" (cartesian)
                      -----
  H (Hydrogen)
  ------------
            Exponent  Coefficients 
       -------------- ---------------------------------------------------------
  1 S  1.30100000E+01  0.019685
  1 S  1.96200000E+00  0.137977
  1 S  4.44600000E-01  0.478148

  2 S  1.22000000E-01  1.000000

  3 S  2.97400000E-02  1.000000

  4 P  7.27000000E-01  1.000000

  5 P  1.41000000E-01  1.000000

  C (Carbon)
  ----------
            Exponent  Coefficients 
       -------------- ---------------------------------------------------------
  1 S  6.66500000E+03  0.000692
  1 S  1.00000000E+03  0.005329
  1 S  2.28000000E+02  0.027077
  1 S  6.47100000E+01  0.101718
  1 S  2.10600000E+01  0.274740
  1 S  7.49500000E+00  0.448564
  1 S  2.79700000E+00  0.285074
  1 S  5.21500000E-01  0.015204

  2 S  6.66500000E+03 -0.000146
  2 S  1.00000000E+03 -0.001154
  2 S  2.28000000E+02 -0.005725
  2 S  6.47100000E+01 -0.023312
  2 S  2.10600000E+01 -0.063955
  2 S  7.49500000E+00 -0.149981
  2 S  2.79700000E+00 -0.127262
  2 S  5.21500000E-01  0.544529

  3 S  1.59600000E-01  1.000000

  4 S  4.69000000E-02  1.000000

  5 P  9.43900000E+00  0.038109
  5 P  2.00200000E+00  0.209480
  5 P  5.45600000E-01  0.508557

  6 P  1.51700000E-01  1.000000

  7 P  4.04100000E-02  1.000000

  8 D  5.50000000E-01  1.000000

  9 D  1.51000000E-01  1.000000

  O (Oxygen)
  ----------
            Exponent  Coefficients 
       -------------- ---------------------------------------------------------
  1 S  1.17200000E+04  0.000710
  1 S  1.75900000E+03  0.005470
  1 S  4.00800000E+02  0.027837
  1 S  1.13700000E+02  0.104800
  1 S  3.70300000E+01  0.283062
  1 S  1.32700000E+01  0.448719
  1 S  5.02500000E+00  0.270952
  1 S  1.01300000E+00  0.015458

  2 S  1.17200000E+04 -0.000160
  2 S  1.75900000E+03 -0.001263
  2 S  4.00800000E+02 -0.006267
  2 S  1.13700000E+02 -0.025716
  2 S  3.70300000E+01 -0.070924
  2 S  1.32700000E+01 -0.165411
  2 S  5.02500000E+00 -0.116955
  2 S  1.01300000E+00  0.557368

  3 S  3.02300000E-01  1.000000

  4 S  7.89600000E-02  1.000000

  5 P  1.77000000E+01  0.043018
  5 P  3.85400000E+00  0.228913
  5 P  1.04600000E+00  0.508728

  6 P  2.75300000E-01  1.000000

  7 P  6.85600000E-02  1.000000

  8 D  1.18500000E+00  1.000000

  9 D  3.32000000E-01  1.000000

  N (Nitrogen)
  ------------
            Exponent  Coefficients 
       -------------- ---------------------------------------------------------
  1 S  9.04600000E+03  0.000700
  1 S  1.35700000E+03  0.005389
  1 S  3.09300000E+02  0.027406
  1 S  8.77300000E+01  0.103207
  1 S  2.85600000E+01  0.278723
  1 S  1.02100000E+01  0.448540
  1 S  3.83800000E+00  0.278238
  1 S  7.46600000E-01  0.015440

  2 S  9.04600000E+03 -0.000153
  2 S  1.35700000E+03 -0.001208
  2 S  3.09300000E+02 -0.005992
  2 S  8.77300000E+01 -0.024544
  2 S  2.85600000E+01 -0.067459
  2 S  1.02100000E+01 -0.158078
  2 S  3.83800000E+00 -0.121831
  2 S  7.46600000E-01  0.549003

  3 S  2.24800000E-01  1.000000

  4 S  6.12400000E-02  1.000000

  5 P  1.35500000E+01  0.039919
  5 P  2.91700000E+00  0.217169
  5 P  7.97300000E-01  0.510319

  6 P  2.18500000E-01  1.000000

  7 P  5.61100000E-02  1.000000

  8 D  8.17000000E-01  1.000000

  9 D  2.30000000E-01  1.000000

  S (Sulphur)
  -----------
            Exponent  Coefficients 
       -------------- ---------------------------------------------------------
  1 S  1.10800000E+05  0.000248
  1 S  1.66100000E+04  0.001920
  1 S  3.78100000E+03  0.009962
  1 S  1.07100000E+03  0.040298
  1 S  3.49800000E+02  0.128604
  1 S  1.26300000E+02  0.303480
  1 S  4.92600000E+01  0.421432
  1 S  2.01600000E+01  0.230781
  1 S  5.72000000E+00  0.017897
  1 S  2.18200000E+00 -0.002975
  1 S  4.32700000E-01  0.000850

  2 S  1.10800000E+05 -0.000069
  2 S  1.66100000E+04 -0.000528
  2 S  3.78100000E+03 -0.002797
  2 S  1.07100000E+03 -0.011265
  2 S  3.49800000E+02 -0.038883
  2 S  1.26300000E+02 -0.099503
  2 S  4.92600000E+01 -0.199740
  2 S  2.01600000E+01 -0.123360
  2 S  5.72000000E+00  0.513194
  2 S  2.18200000E+00  0.607120
  2 S  4.32700000E-01  0.039675

  3 S  1.10800000E+05  0.000020
  3 S  1.66100000E+04  0.000153
  3 S  3.78100000E+03  0.000810
  3 S  1.07100000E+03  0.003290
  3 S  3.49800000E+02  0.011297
  3 S  1.26300000E+02  0.029639
  3 S  4.92600000E+01  0.059985
  3 S  2.01600000E+01  0.041325
  3 S  5.72000000E+00 -0.207474
  3 S  2.18200000E+00 -0.392889
  3 S  4.32700000E-01  0.632840

  4 S  1.57000000E-01  1.000000

  5 S  5.07000000E-02  1.000000

  6 P  3.99700000E+02  0.004475
  6 P  9.41900000E+01  0.034171
  6 P  2.97500000E+01  0.144250
  6 P  1.07700000E+01  0.353928
  6 P  4.11900000E+00  0.459085
  6 P  1.62500000E+00  0.206383
  6 P  4.72600000E-01  0.010214

  7 P  3.99700000E+02 -0.001163
  7 P  9.41900000E+01 -0.008657
  7 P  2.97500000E+01 -0.039089
  7 P  1.07700000E+01 -0.093463
  7 P  4.11900000E+00 -0.147994
  7 P  1.62500000E+00  0.030190
  7 P  4.72600000E-01  0.561573

  8 P  1.40700000E-01  1.000000

  9 P  3.99000000E-02  1.000000

 10 D  4.79000000E-01  1.000000

 11 D  1.52000000E-01  1.000000



 Summary of "ao basis" -> "ao basis" (cartesian)
 ------------------------------------------------------------------------------
       Tag                 Description            Shells   Functions and Types
 ---------------- ------------------------------  ------  ---------------------
 H                        aug-cc-pvdz                5        9   3s2p
 C                        aug-cc-pvdz                9       25   4s3p2d
 O                        aug-cc-pvdz                9       25   4s3p2d
 N                        aug-cc-pvdz                9       25   4s3p2d
 S                        aug-cc-pvdz               11       29   5s4p2d


                                 NWChem SCF Module
                                 -----------------



  ao basis        = "ao basis"
  functions       =   641
  atoms           =    37
  closed shells   =    77
  open shells     =     0
  charge          =   0.00
  wavefunction    = RHF 
  input vectors   = atomic
  output vectors  = ./GLN_CYS_1.movecs
  use symmetry    = F
  symmetry adapt  = F


 Summary of "ao basis" -> "ao basis" (cartesian)
 ------------------------------------------------------------------------------
       Tag                 Description            Shells   Functions and Types
 ---------------- ------------------------------  ------  ---------------------
 H                        aug-cc-pvdz                5        9   3s2p
 C                        aug-cc-pvdz                9       25   4s3p2d
 O                        aug-cc-pvdz                9       25   4s3p2d
 N                        aug-cc-pvdz                9       25   4s3p2d
 S                        aug-cc-pvdz               11       29   5s4p2d



 Forming initial guess at       1.1s


 !! The overlap matrix has   6 vectors deemed linearly dependent with
    eigenvalues:
 1.51D-06 4.17D-06 5.25D-06 6.52D-06 7.69D-06 8.43D-06


      Superposition of Atomic Density Guess
      -------------------------------------

 Sum of atomic energies:       -1299.41518133

      Non-variational initial energy
      ------------------------------

 Total energy =   -1311.353314
 1-e energy   =   -5123.805078
 2-e energy   =    2129.381027
 HOMO         =      -0.288068
 LUMO         =       0.011830


 Starting SCF solution at     672.8s



 ----------------------------------------------
         Quadratically convergent ROHF

 Convergence threshold     :          1.000E-04
 Maximum no. of iterations :           30
 Final Fock-matrix accuracy:          1.000E-10
 ----------------------------------------------


              iter       energy          gnorm     gmax       time
             ----- ------------------- --------- --------- --------
                 1    -1303.7203085495  2.66D+00  1.41D-01   1417.3
                 2    -1304.0974748430  8.78D-01  4.41D-02   2911.3
                 3    -1304.1656366696  6.88D-02  4.13D-03   5008.2
                 4    -1304.1663790217  4.23D-03  3.32D-04   7776.4
                 5    -1304.1663823013  9.45D-06  6.32D-07  12567.4


       Final RHF  results 
       ------------------ 

         Total SCF energy =  -1304.166382301289
      One-electron energy =  -5137.507661554346
      Two-electron energy =   2150.270542650454
 Nuclear repulsion energy =   1683.070736602603

        Time for solution =  11897.4s


             Final eigenvalues
             -----------------

              1      
    1  -91.9407
    2  -20.5463
    3  -20.5391
    4  -20.5273
    5  -20.5225
    6  -15.6070
    7  -15.6013
    8  -15.5997
    9  -15.5848
   10  -11.3746
   11  -11.3698
   12  -11.3590
   13  -11.3579
   14  -11.3048
   15  -11.3030
   16  -11.2749
   17  -11.2599
   18  -11.2569
   19  -11.2455
   20   -8.9424
   21   -6.6247
   22   -6.6235
   23   -6.6214
   24   -1.4109
   25   -1.4075
   26   -1.3891
   27   -1.3846
   28   -1.2531
   29   -1.2481
   30   -1.2396
   31   -1.2123
   32   -1.0991
   33   -1.0733
   34   -1.0239
   35   -0.9849
   36   -0.9557
   37   -0.8879
   38   -0.8567
   39   -0.8219
   40   -0.8076
   41   -0.7958
   42   -0.7822
   43   -0.7515
   44   -0.7368
   45   -0.7310
   46   -0.6967
   47   -0.6885
   48   -0.6753
   49   -0.6661
   50   -0.6590
   51   -0.6388
   52   -0.6244
   53   -0.6186
   54   -0.6156
   55   -0.6071
   56   -0.5941
   57   -0.5772
   58   -0.5727
   59   -0.5712
   60   -0.5661
   61   -0.5562
   62   -0.5470
   63   -0.5361
   64   -0.5280
   65   -0.5186
   66   -0.5094
   67   -0.5049
   68   -0.4503
   69   -0.4479
   70   -0.4397
   71   -0.4339
   72   -0.4296
   73   -0.4249
   74   -0.4058
   75   -0.4012
   76   -0.3912
   77   -0.3466
   78    0.0248
   79    0.0313
   80    0.0369
   81    0.0405
   82    0.0483
   83    0.0528
   84    0.0553
   85    0.0561
   86    0.0623
   87    0.0716

                       ROHF Final Molecular Orbital Analysis
                       -------------------------------------

 Vector   24  Occ=2.000000D+00  E=-1.410857D+00
              MO Center= -1.9D+00, -5.2D-01,  3.2D-02, r^2= 3.4D+00
   Bfn.  Coefficient  Atom+Function         Bfn.  Coefficient  Atom+Function  
  ----- ------------  ---------------      ----- ------------  ---------------
   284      0.337154  18 O  s               283      0.322322  18 O  s         
   258      0.226970  17 C  s         

 Vector   25  Occ=2.000000D+00  E=-1.407539D+00
              MO Center=  1.1D+00, -8.2D-02, -1.1D-01, r^2= 4.2D+00
   Bfn.  Coefficient  Atom+Function         Bfn.  Coefficient  Atom+Function  
  ----- ------------  ---------------      ----- ------------  ---------------
   377      0.338001  23 O  s               376      0.314577  23 O  s         
   351      0.215283  22 C  s         

 Vector   26  Occ=2.000000D+00  E=-1.389087D+00
              MO Center=  4.8D-01, -3.5D+00, -5.3D-01, r^2= 3.5D+00
   Bfn.  Coefficient  Atom+Function         Bfn.  Coefficient  Atom+Function  
  ----- ------------  ---------------      ----- ------------  ---------------
    80      0.344887   6 O  s                79      0.340473   6 O  s         
    54      0.238448   5 C  s                12      0.182305   2 C  s         

 Vector   27  Occ=2.000000D+00  E=-1.384571D+00
              MO Center=  1.4D+00,  3.4D+00,  5.7D-01, r^2= 3.0D+00
   Bfn.  Coefficient  Atom+Function         Bfn.  Coefficient  Atom+Function  
  ----- ------------  ---------------      ----- ------------  ---------------
   576      0.368974  34 O  s               575      0.343299  34 O  s         
   550      0.236808  33 C  s         

 Vector   28  Occ=2.000000D+00  E=-1.253137D+00
              MO Center=  6.6D-01,  9.3D-01, -3.6D-01, r^2= 2.6D+00
   Bfn.  Coefficient  Atom+Function         Bfn.  Coefficient  Atom+Function  
  ----- ------------  ---------------      ----- ------------  ---------------
   402      0.363062  24 N  s               401      0.330135  24 N  s         
   377     -0.215981  23 O  s               376     -0.173757  23 O  s         
   354     -0.165163  22 C  px        

 Vector   29  Occ=2.000000D+00  E=-1.248088D+00
              MO Center=  1.1D+00, -2.7D+00, -1.7D-01, r^2= 2.0D+00
   Bfn.  Coefficient  Atom+Function         Bfn.  Coefficient  Atom+Function  
  ----- ------------  ---------------      ----- ------------  ---------------
   105      0.481098   7 N  s               104      0.342923   7 N  s         
    80     -0.211022   6 O  s                79     -0.182303   6 O  s         
   128      0.153484   8 H  s         

 Vector   30  Occ=2.000000D+00  E=-1.239643D+00
              MO Center= -3.3D+00, -1.4D+00,  1.5D-01, r^2= 1.9D+00
   Bfn.  Coefficient  Atom+Function         Bfn.  Coefficient  Atom+Function  
  ----- ------------  ---------------      ----- ------------  ---------------
   309      0.440451  19 N  s               308      0.364067  19 N  s         
   284     -0.221394  18 O  s               283     -0.189376  18 O  s         
   264      0.176701  17 C  px              341      0.168299  21 H  s         
   261     -0.159079  17 C  px              285     -0.153047  18 O  s         
   332      0.153745  20 H  s         

 Vector   31  Occ=2.000000D+00  E=-1.212298D+00
              MO Center=  1.8D+00,  2.6D+00,  1.1D+00, r^2= 1.7D+00
   Bfn.  Coefficient  Atom+Function         Bfn.  Coefficient  Atom+Function  
  ----- ------------  ---------------      ----- ------------  ---------------
   601      0.394013  35 N  s               600      0.367783  35 N  s         
   576     -0.212827  34 O  s               575     -0.171481  34 O  s         
   554     -0.167540  33 C  py              633      0.164716  37 H  s         
   624      0.157657  36 H  s               402     -0.151424  24 N  s         

 Vector   32  Occ=2.000000D+00  E=-1.099087D+00
              MO Center= -1.5D-01, -9.9D-01,  4.3D-01, r^2= 6.5D+00
   Bfn.  Coefficient  Atom+Function         Bfn.  Coefficient  Atom+Function  
  ----- ------------  ---------------      ----- ------------  ---------------
   216      0.220632  14 C  s               172      0.219231  11 C  s         
   215      0.180787  14 C  s               138      0.171271   9 C  s         

 Vector   33  Occ=2.000000D+00  E=-1.073306D+00
              MO Center= -2.4D-01,  1.7D+00, -4.7D-01, r^2= 7.1D+00
   Bfn.  Coefficient  Atom+Function         Bfn.  Coefficient  Atom+Function  
  ----- ------------  ---------------      ----- ------------  ---------------
   469      0.236282  28 C  s               513      0.174121  31 S  s         
   435      0.173196  26 C  s         

 Vector   34  Occ=2.000000D+00  E=-1.023946D+00
              MO Center=  6.1D-01, -2.9D+00, -6.5D-03, r^2= 8.2D+00
   Bfn.  Coefficient  Atom+Function         Bfn.  Coefficient  Atom+Function  
  ----- ------------  ---------------      ----- ------------  ---------------
    56     -0.263848   5 C  s                11      0.249090   2 C  s         
   216      0.197253  14 C  s                12      0.185447   2 C  s         
   215      0.182368  14 C  s         

 Vector   35  Occ=2.000000D+00  E=-9.848795D-01
              MO Center=  5.1D-01, -1.1D+00, -2.7D-01, r^2= 1.4D+01
   Bfn.  Coefficient  Atom+Function         Bfn.  Coefficient  Atom+Function  
  ----- ------------  ---------------      ----- ------------  ---------------
    11      0.220139   2 C  s               513      0.186621  31 S  s         

 Vector   36  Occ=2.000000D+00  E=-9.557100D-01
              MO Center=  9.6D-03,  8.7D-01, -1.3D-01, r^2= 1.1D+01
   Bfn.  Coefficient  Atom+Function         Bfn.  Coefficient  Atom+Function  
  ----- ------------  ---------------      ----- ------------  ---------------
   513      0.235421  31 S  s               435     -0.195248  26 C  s         
   216      0.163278  14 C  s         

 Vector   37  Occ=2.000000D+00  E=-8.878687D-01
              MO Center= -7.1D-01, -1.3D+00,  6.0D-01, r^2= 6.4D+00
   Bfn.  Coefficient  Atom+Function         Bfn.  Coefficient  Atom+Function  
  ----- ------------  ---------------      ----- ------------  ---------------
   216      0.325439  14 C  s               172     -0.235216  11 C  s         
   196     -0.154949  12 H  s         

 Vector   38  Occ=2.000000D+00  E=-8.566788D-01
              MO Center=  1.0D-01,  3.0D+00, -4.1D-01, r^2= 4.5D+00
   Bfn.  Coefficient  Atom+Function         Bfn.  Coefficient  Atom+Function  
  ----- ------------  ---------------      ----- ------------  ---------------
   514      0.299148  31 S  s               443      0.268560  26 C  pz        
   513      0.255877  31 S  s               436      0.248940  26 C  s         
   469     -0.208275  28 C  s               471      0.192951  28 C  s         
   502     -0.160377  30 H  s               558      0.159696  33 C  pz        
   550      0.158557  33 C  s         

 Vector   39  Occ=2.000000D+00  E=-8.219181D-01
              MO Center=  8.0D-01, -9.8D-02, -3.3D-01, r^2= 7.7D+00
   Bfn.  Coefficient  Atom+Function         Bfn.  Coefficient  Atom+Function  
  ----- ------------  ---------------      ----- ------------  ---------------
   436      0.274095  26 C  s               352      0.226527  22 C  s         
   402     -0.208214  24 N  s               108     -0.196881   7 N  py        
   405     -0.196741  24 N  py              404      0.183838  24 N  px        
   351      0.180572  22 C  s               425     -0.166749  25 H  s         

 Vector   40  Occ=2.000000D+00  E=-8.076019D-01
              MO Center= -2.6D+00, -1.2D+00,  3.9D-01, r^2= 5.8D+00
   Bfn.  Coefficient  Atom+Function         Bfn.  Coefficient  Atom+Function  
  ----- ------------  ---------------      ----- ------------  ---------------
   311      0.288747  19 N  px              341     -0.241902  21 H  s         
   258      0.194451  17 C  s               312      0.190160  19 N  py        
   309     -0.184365  19 N  s               261     -0.177764  17 C  px        
   284     -0.167188  18 O  s               264     -0.163586  17 C  px        

 Vector   41  Occ=2.000000D+00  E=-7.957989D-01
              MO Center=  9.4D-01, -2.0D+00, -8.7D-02, r^2= 4.5D+00
   Bfn.  Coefficient  Atom+Function         Bfn.  Coefficient  Atom+Function  
  ----- ------------  ---------------      ----- ------------  ---------------
   128      0.288579   8 H  s               105      0.275278   7 N  s         
   107      0.262604   7 N  px              163     -0.261114  10 H  s         
    55     -0.249078   5 C  s               144     -0.190219   9 C  px        
   216     -0.181353  14 C  s               108      0.164251   7 N  py        
   162     -0.163306  10 H  s                80      0.158260   6 O  s         

 Vector   42  Occ=2.000000D+00  E=-7.822142D-01
              MO Center=  1.0D+00,  1.9D+00,  3.7D-01, r^2= 6.2D+00
   Bfn.  Coefficient  Atom+Function         Bfn.  Coefficient  Atom+Function  
  ----- ------------  ---------------      ----- ------------  ---------------
   352      0.238739  22 C  s               404      0.210593  24 N  px        
   604     -0.189462  35 N  py              633      0.186675  37 H  s         
   425     -0.185603  25 H  s               552      0.177483  33 C  s         
   605      0.171152  35 N  pz              550     -0.170295  33 C  s         
   402     -0.166203  24 N  s               558     -0.161268  33 C  pz        

 Vector   43  Occ=2.000000D+00  E=-7.514922D-01
              MO Center= -1.9D+00, -1.1D+00,  3.4D-01, r^2= 9.3D+00
   Bfn.  Coefficient  Atom+Function         Bfn.  Coefficient  Atom+Function  
  ----- ------------  ---------------      ----- ------------  ---------------
   312      0.254445  19 N  py              332      0.253073  20 H  s         
   341     -0.221238  21 H  s               313     -0.190140  19 N  pz        
   216      0.169519  14 C  s         

 Vector   44  Occ=2.000000D+00  E=-7.368488D-01
              MO Center=  1.1D-01,  6.3D-01,  3.8D-01, r^2= 1.1D+01
   Bfn.  Coefficient  Atom+Function         Bfn.  Coefficient  Atom+Function  
  ----- ------------  ---------------      ----- ------------  ---------------
   604      0.247604  35 N  py              633     -0.209980  37 H  s         
   352      0.184781  22 C  s               312     -0.178700  19 N  py        
   404      0.178497  24 N  px              442     -0.171289  26 C  py        
   341      0.160663  21 H  s               332     -0.158280  20 H  s         
   216     -0.157303  14 C  s               551      0.157814  33 C  s         

 Vector   45  Occ=2.000000D+00  E=-7.309679D-01
              MO Center=  1.2D+00,  3.0D-01,  2.3D-01, r^2= 1.0D+01
   Bfn.  Coefficient  Atom+Function         Bfn.  Coefficient  Atom+Function  
  ----- ------------  ---------------      ----- ------------  ---------------
   624      0.213828  36 H  s               355     -0.192965  22 C  py        
   604      0.181967  35 N  py              142      0.170694   9 C  py        
   605      0.170508  35 N  pz              633     -0.154299  37 H  s         

 Vector   46  Occ=2.000000D+00  E=-6.966764D-01
              MO Center= -1.5D+00, -1.1D+00,  3.8D-01, r^2= 5.8D+00
   Bfn.  Coefficient  Atom+Function         Bfn.  Coefficient  Atom+Function  
  ----- ------------  ---------------      ----- ------------  ---------------
   261      0.234768  17 C  px              284     -0.230642  18 O  s         
   287     -0.215380  18 O  py              311     -0.161824  19 N  px        
   219      0.158757  14 C  py        

 Vector   47  Occ=2.000000D+00  E=-6.885439D-01
              MO Center=  1.0D+00,  4.6D-01,  1.2D-02, r^2= 1.1D+01
   Bfn.  Coefficient  Atom+Function         Bfn.  Coefficient  Atom+Function  
  ----- ------------  ---------------      ----- ------------  ---------------
   442      0.232618  26 C  py              405     -0.174654  24 N  py        
   624      0.172569  36 H  s                82     -0.167943   6 O  px        
   379      0.163927  23 O  px              605      0.156469  35 N  pz        
   439      0.153228  26 C  py        

 Vector   48  Occ=2.000000D+00  E=-6.753053D-01
              MO Center=  6.2D-01,  3.6D-02, -1.1D-01, r^2= 1.1D+01
   Bfn.  Coefficient  Atom+Function         Bfn.  Coefficient  Atom+Function  
  ----- ------------  ---------------      ----- ------------  ---------------
   379      0.175266  23 O  px              443     -0.152461  26 C  pz        
   459      0.152008  27 H  s         

 Vector   49  Occ=2.000000D+00  E=-6.660565D-01
              MO Center=  8.7D-01, -2.2D+00, -2.9D-01, r^2= 1.0D+01
   Bfn.  Coefficient  Atom+Function         Bfn.  Coefficient  Atom+Function  
  ----- ------------  ---------------      ----- ------------  ---------------
    82      0.271094   6 O  px               58     -0.237292   5 C  py        
    80     -0.207256   6 O  s                14     -0.178064   2 C  px        
    12      0.161553   2 C  s               108      0.151340   7 N  py        

 Vector   50  Occ=2.000000D+00  E=-6.590453D-01
              MO Center= -3.7D-01, -1.5D+00,  4.6D-01, r^2= 7.9D+00
   Bfn.  Coefficient  Atom+Function         Bfn.  Coefficient  Atom+Function  
  ----- ------------  ---------------      ----- ------------  ---------------
   163     -0.181254  10 H  s               139      0.177236   9 C  s         
   220     -0.171775  14 C  pz              239      0.167774  15 H  s         

 Vector   51  Occ=2.000000D+00  E=-6.387739D-01
              MO Center=  8.4D-01, -1.1D+00, -2.5D-01, r^2= 1.1D+01
   Bfn.  Coefficient  Atom+Function         Bfn.  Coefficient  Atom+Function  
  ----- ------------  ---------------      ----- ------------  ---------------
   471      0.172194  28 C  s                59      0.160821   5 C  pz        
   459      0.158352  27 H  s               206     -0.156479  13 H  s         
    16      0.153521   2 C  pz              109      0.153519   7 N  pz        

 Vector   52  Occ=2.000000D+00  E=-6.244083D-01
              MO Center= -3.1D-01, -1.1D+00,  2.1D-01, r^2= 9.5D+00
   Bfn.  Coefficient  Atom+Function         Bfn.  Coefficient  Atom+Function  
  ----- ------------  ---------------      ----- ------------  ---------------
   287      0.203843  18 O  py              263      0.155768  17 C  pz        

 Vector   53  Occ=2.000000D+00  E=-6.185922D-01
              MO Center= -9.5D-01, -8.2D-01,  2.2D-01, r^2= 8.1D+00
   Bfn.  Coefficient  Atom+Function         Bfn.  Coefficient  Atom+Function  
  ----- ------------  ---------------      ----- ------------  ---------------
   262      0.243044  17 C  py              287     -0.227024  18 O  py        
   286     -0.191817  18 O  px              379      0.183610  23 O  px        

 Vector   54  Occ=2.000000D+00  E=-6.156120D-01
              MO Center=  7.1D-01,  3.0D+00, -8.7D-02, r^2= 7.2D+00
   Bfn.  Coefficient  Atom+Function         Bfn.  Coefficient  Atom+Function  
  ----- ------------  ---------------      ----- ------------  ---------------
   579      0.313142  34 O  py              403     -0.261844  24 N  s         
   554     -0.246855  33 C  py              503     -0.203860  30 H  s         
   576      0.186638  34 O  s               473      0.181488  28 C  py        
   411      0.170642  24 N  py              493      0.170587  29 H  s         
   174      0.159045  11 C  s               582      0.158845  34 O  py        

 Vector   55  Occ=2.000000D+00  E=-6.071441D-01
              MO Center=  1.1D+00, -1.4D+00, -1.9D-01, r^2= 1.0D+01
   Bfn.  Coefficient  Atom+Function         Bfn.  Coefficient  Atom+Function  
  ----- ------------  ---------------      ----- ------------  ---------------
    16      0.190749   2 C  pz              381     -0.181261  23 O  pz        
    44     -0.177089   4 H  s               173      0.161607  11 C  s         
   356     -0.153963  22 C  pz              379     -0.150935  23 O  px        

 Vector   56  Occ=2.000000D+00  E=-5.940869D-01
              MO Center=  2.3D-01, -2.0D+00, -1.6D-01, r^2= 1.1D+01
   Bfn.  Coefficient  Atom+Function         Bfn.  Coefficient  Atom+Function  
  ----- ------------  ---------------      ----- ------------  ---------------
   163      0.350275  10 H  s                57      0.235002   5 C  px        
    82     -0.172285   6 O  px               15      0.157522   2 C  py        
    55     -0.154773   5 C  s                83     -0.155158   6 O  py        

 Vector   57  Occ=2.000000D+00  E=-5.771872D-01
              MO Center=  5.7D-01,  2.1D+00, -6.5D-02, r^2= 8.3D+00
   Bfn.  Coefficient  Atom+Function         Bfn.  Coefficient  Atom+Function  
  ----- ------------  ---------------      ----- ------------  ---------------
   436      0.204950  26 C  s               555     -0.186223  33 C  pz        
   440      0.181238  26 C  pz              475     -0.159282  28 C  px        
   472     -0.156756  28 C  px        

 Vector   58  Occ=2.000000D+00  E=-5.727379D-01
              MO Center=  7.0D-01, -2.9D+00, -4.2D-01, r^2= 1.1D+01
   Bfn.  Coefficient  Atom+Function         Bfn.  Coefficient  Atom+Function  
  ----- ------------  ---------------      ----- ------------  ---------------
    36     -0.234873   3 H  s                14      0.225110   2 C  px        
    35     -0.201884   3 H  s                82      0.198603   6 O  px        
    57     -0.191812   5 C  px               83      0.169140   6 O  py        
    44      0.152631   4 H  s         

 Vector   59  Occ=2.000000D+00  E=-5.712397D-01
              MO Center=  7.7D-02,  2.0D+00, -3.3D-01, r^2= 9.8D+00
   Bfn.  Coefficient  Atom+Function         Bfn.  Coefficient  Atom+Function  
  ----- ------------  ---------------      ----- ------------  ---------------
   579     -0.222430  34 O  py              493      0.216640  29 H  s         
   473      0.213532  28 C  py              554      0.178888  33 C  py        
   503     -0.174086  30 H  s               439     -0.153443  26 C  py        
   411      0.151916  24 N  py              443     -0.152572  26 C  pz        
   403     -0.150214  24 N  s         

 Vector   60  Occ=2.000000D+00  E=-5.661218D-01
              MO Center=  4.1D-01, -1.6D+00, -1.2D-02, r^2= 1.2D+01
   Bfn.  Coefficient  Atom+Function         Bfn.  Coefficient  Atom+Function  
  ----- ------------  ---------------      ----- ------------  ---------------
    15      0.207947   2 C  py               35     -0.205689   3 H  s         
   361      0.177106  22 C  py               36     -0.152292   3 H  s         

 Vector   61  Occ=2.000000D+00  E=-5.561753D-01
              MO Center=  5.6D-01, -1.1D+00, -2.8D-01, r^2= 1.4D+01
   Bfn.  Coefficient  Atom+Function         Bfn.  Coefficient  Atom+Function  
  ----- ------------  ---------------      ----- ------------  ---------------
   163      0.252595  10 H  s                35     -0.209523   3 H  s         
    15      0.184466   2 C  py              380      0.169240  23 O  py        

 Vector   62  Occ=2.000000D+00  E=-5.469610D-01
              MO Center=  5.7D-01,  2.5D+00, -3.4D-01, r^2= 6.0D+00
   Bfn.  Coefficient  Atom+Function         Bfn.  Coefficient  Atom+Function  
  ----- ------------  ---------------      ----- ------------  ---------------
   474      0.247686  28 C  pz              502     -0.219353  30 H  s         
   578      0.216294  34 O  px              470      0.214185  28 C  s         
   438     -0.185365  26 C  px              553      0.180568  33 C  px        
   477      0.176675  28 C  pz              163     -0.175433  10 H  s         
   581      0.158200  34 O  px              403      0.156140  24 N  s         

 Vector   63  Occ=2.000000D+00  E=-5.361460D-01
              MO Center=  2.2D-01, -2.4D+00,  2.5D-01, r^2= 8.8D+00
   Bfn.  Coefficient  Atom+Function         Bfn.  Coefficient  Atom+Function  
  ----- ------------  ---------------      ----- ------------  ---------------
    16      0.197510   2 C  pz              109     -0.197379   7 N  pz        
   248     -0.190691  16 H  s               112     -0.179251   7 N  pz        
   220     -0.176169  14 C  pz              249     -0.169183  16 H  s         
     1      0.158882   1 H  s               173      0.159361  11 C  s         
    84     -0.158292   6 O  pz               44     -0.154733   4 H  s         

 Vector   64  Occ=2.000000D+00  E=-5.280306D-01
              MO Center= -1.3D-01, -1.7D+00,  7.5D-01, r^2= 5.0D+00
   Bfn.  Coefficient  Atom+Function         Bfn.  Coefficient  Atom+Function  
  ----- ------------  ---------------      ----- ------------  ---------------
   197      0.295405  12 H  s               196      0.266428  12 H  s         
   163      0.260160  10 H  s               175      0.234169  11 C  px        
   221     -0.201972  14 C  px              218     -0.190398  14 C  px        
   162      0.182294  10 H  s               141     -0.157616   9 C  px        
   107      0.153574   7 N  px        

 Vector   65  Occ=2.000000D+00  E=-5.186176D-01
              MO Center= -2.9D-01, -1.4D+00,  8.3D-01, r^2= 5.6D+00
   Bfn.  Coefficient  Atom+Function         Bfn.  Coefficient  Atom+Function  
  ----- ------------  ---------------      ----- ------------  ---------------
   206      0.328264  13 H  s               178      0.300006  11 C  px        
   216      0.249111  14 C  s               176      0.243143  11 C  py        
   219     -0.239849  14 C  py              239      0.212347  15 H  s         
   205      0.205932  13 H  s               260      0.200796  17 C  s         
   175      0.189001  11 C  px              218     -0.187562  14 C  px        

 Vector   66  Occ=2.000000D+00  E=-5.093609D-01
              MO Center= -1.0D-01,  3.1D+00, -4.3D-01, r^2= 5.0D+00
   Bfn.  Coefficient  Atom+Function         Bfn.  Coefficient  Atom+Function  
  ----- ------------  ---------------      ----- ------------  ---------------
   470      0.248334  28 C  s               540      0.243011  32 H  s         
   521      0.239995  31 S  pz              471      0.213717  28 C  s         
   494     -0.200344  29 H  s               460     -0.198324  27 H  s         
   502      0.191392  30 H  s               580     -0.176355  34 O  pz        
   524      0.174073  31 S  pz              473     -0.170497  28 C  py        

 Vector   67  Occ=2.000000D+00  E=-5.048605D-01
              MO Center=  1.0D-01, -2.5D+00,  1.2D-01, r^2= 6.7D+00
   Bfn.  Coefficient  Atom+Function         Bfn.  Coefficient  Atom+Function  
  ----- ------------  ---------------      ----- ------------  ---------------
    84      0.289698   6 O  pz              143     -0.231678   9 C  pz        
   249     -0.228865  16 H  s                87      0.212114   6 O  pz        
   177      0.205842  11 C  pz              146     -0.195923   9 C  pz        
   173      0.182962  11 C  s                59      0.157305   5 C  pz        

 Vector   68  Occ=2.000000D+00  E=-4.502995D-01
              MO Center= -1.4D-01,  2.6D+00, -3.1D-01, r^2= 6.2D+00
   Bfn.  Coefficient  Atom+Function         Bfn.  Coefficient  Atom+Function  
  ----- ------------  ---------------      ----- ------------  ---------------
   519      0.291664  31 S  px              514     -0.256114  31 S  s         
   472     -0.207981  28 C  px              522      0.208747  31 S  px        
   381      0.197986  23 O  pz              578     -0.196377  34 O  px        
   475     -0.187794  28 C  px              406     -0.178963  24 N  pz        
   409     -0.161418  24 N  pz              460      0.160132  27 H  s         

 Vector   69  Occ=2.000000D+00  E=-4.478741D-01
              MO Center=  4.0D-01,  5.2D-01,  3.1D-02, r^2= 8.2D+00
   Bfn.  Coefficient  Atom+Function         Bfn.  Coefficient  Atom+Function  
  ----- ------------  ---------------      ----- ------------  ---------------
   380      0.300812  23 O  py              216      0.277200  14 C  s         
   383      0.247336  23 O  py              286      0.220384  18 O  px        
   381     -0.195357  23 O  pz              580      0.195128  34 O  pz        
   289      0.183330  18 O  px               56     -0.172152   5 C  s         
   147      0.166260   9 C  px              384     -0.154052  23 O  pz        

 Vector   70  Occ=2.000000D+00  E=-4.396635D-01
              MO Center= -9.1D-01, -5.5D-01,  1.2D-01, r^2= 6.3D+00
   Bfn.  Coefficient  Atom+Function         Bfn.  Coefficient  Atom+Function  
  ----- ------------  ---------------      ----- ------------  ---------------
   286      0.385928  18 O  px              289      0.319467  18 O  px        
   380     -0.293558  23 O  py              383     -0.244652  23 O  py        
   197     -0.212706  12 H  s               259     -0.180846  17 C  s         
    56     -0.175780   5 C  s               216      0.174294  14 C  s         
   288      0.167504  18 O  pz              206      0.162250  13 H  s         

 Vector   71  Occ=2.000000D+00  E=-4.338964D-01
              MO Center= -1.6D-01,  1.7D+00, -1.9D-02, r^2= 9.6D+00
   Bfn.  Coefficient  Atom+Function         Bfn.  Coefficient  Atom+Function  
  ----- ------------  ---------------      ----- ------------  ---------------
   580      0.276840  34 O  pz              380     -0.216461  23 O  py        
   583      0.216103  34 O  pz              514     -0.212318  31 S  s         
   519      0.203953  31 S  px              288     -0.186583  18 O  pz        
   383     -0.177754  23 O  py              475     -0.166763  28 C  px        
   406      0.161814  24 N  pz        

 Vector   72  Occ=2.000000D+00  E=-4.295938D-01
              MO Center= -2.4D+00, -1.2D+00, -7.2D-02, r^2= 6.8D+00
   Bfn.  Coefficient  Atom+Function         Bfn.  Coefficient  Atom+Function  
  ----- ------------  ---------------      ----- ------------  ---------------
   313      0.320422  19 N  pz              316      0.267667  19 N  pz        
   288     -0.261162  18 O  pz              291     -0.213144  18 O  pz        
    83     -0.192753   6 O  py              312      0.189924  19 N  py        
   287     -0.180298  18 O  py              403     -0.161163  24 N  s         
   314     -0.159858  19 N  px               86     -0.155365   6 O  py        

 Vector   73  Occ=2.000000D+00  E=-4.249105D-01
              MO Center=  9.9D-02, -3.4D+00, -5.2D-01, r^2= 5.5D+00
   Bfn.  Coefficient  Atom+Function         Bfn.  Coefficient  Atom+Function  
  ----- ------------  ---------------      ----- ------------  ---------------
    83      0.454093   6 O  py               86      0.364150   6 O  py        
    82     -0.202600   6 O  px              105     -0.196956   7 N  s         
    17     -0.189875   2 C  px               14     -0.186338   2 C  px        
   361     -0.185015  22 C  py               13     -0.171292   2 C  s         
    85     -0.153478   6 O  px        

 Vector   74  Occ=2.000000D+00  E=-4.058460D-01
              MO Center=  1.1D+00,  1.5D+00,  3.7D-01, r^2= 1.0D+01
   Bfn.  Coefficient  Atom+Function         Bfn.  Coefficient  Atom+Function  
  ----- ------------  ---------------      ----- ------------  ---------------
   580      0.293559  34 O  pz              603      0.280429  35 N  px        
   606      0.240755  35 N  px              583      0.227298  34 O  pz        
   109      0.206202   7 N  pz              112      0.190022   7 N  pz        
   406     -0.165494  24 N  pz               84     -0.163010   6 O  pz        
   409     -0.157483  24 N  pz              552     -0.155758  33 C  s         

 Vector   75  Occ=2.000000D+00  E=-4.011553D-01
              MO Center=  1.1D+00,  1.9D-01,  3.3D-01, r^2= 1.2D+01
   Bfn.  Coefficient  Atom+Function         Bfn.  Coefficient  Atom+Function  
  ----- ------------  ---------------      ----- ------------  ---------------
   109      0.296616   7 N  pz              112      0.271500   7 N  pz        
   578      0.266593  34 O  px              603     -0.236847  35 N  px        
    84     -0.224881   6 O  pz              606     -0.217618  35 N  px        
   581      0.213612  34 O  px               87     -0.174231   6 O  pz        
   605      0.152164  35 N  pz        

 Vector   76  Occ=2.000000D+00  E=-3.911664D-01
              MO Center=  9.4D-01,  6.8D-01, -3.8D-02, r^2= 9.1D+00
   Bfn.  Coefficient  Atom+Function         Bfn.  Coefficient  Atom+Function  
  ----- ------------  ---------------      ----- ------------  ---------------
   406      0.294266  24 N  pz              409      0.272935  24 N  pz        
   109      0.232037   7 N  pz              149     -0.226823   9 C  pz        
   112      0.214693   7 N  pz              578     -0.206666  34 O  px        
   381     -0.181058  23 O  pz              580     -0.180469  34 O  pz        
    84     -0.170116   6 O  pz              581     -0.167386  34 O  px        

 Vector   77  Occ=2.000000D+00  E=-3.466083D-01
              MO Center= -1.4D+00,  3.3D+00, -5.1D-01, r^2= 2.3D+00
   Bfn.  Coefficient  Atom+Function         Bfn.  Coefficient  Atom+Function  
  ----- ------------  ---------------      ----- ------------  ---------------
   523      0.403027  31 S  py              520      0.400454  31 S  py        
   521     -0.304688  31 S  pz              524     -0.291867  31 S  pz        
   471     -0.244996  28 C  s               411      0.212378  24 N  py        

 Vector   78  Occ=0.000000D+00  E= 2.484376D-02
              MO Center= -2.9D+00, -2.8D+00,  1.8D+00, r^2= 2.7D+01
   Bfn.  Coefficient  Atom+Function         Bfn.  Coefficient  Atom+Function  
  ----- ------------  ---------------      ----- ------------  ---------------
   260      3.862448  17 C  s               310     -3.500038  19 N  s         
   427      3.468683  25 H  s               267     -2.439678  17 C  px        
   250     -2.282500  16 H  s               217      1.802836  14 C  s         
   552      1.794204  33 C  s               216      1.726268  14 C  s         
   343     -1.647268  21 H  s               148     -1.585908   9 C  py        

 Vector   79  Occ=0.000000D+00  E= 3.129786D-02
              MO Center=  2.1D-01, -2.9D+00,  1.2D+00, r^2= 3.8D+01
   Bfn.  Coefficient  Atom+Function         Bfn.  Coefficient  Atom+Function  
  ----- ------------  ---------------      ----- ------------  ---------------
   148      3.723083   9 C  py              267     -2.760870  17 C  px        
   310     -2.507600  19 N  s               198      2.210447  12 H  s         
    12     -1.956165   2 C  s               181     -1.832121  11 C  px        
   403     -1.762995  24 N  s                64      1.751804   5 C  py        
   552     -1.676586  33 C  s               411      1.582218  24 N  py        

 Vector   80  Occ=0.000000D+00  E= 3.694113D-02
              MO Center=  6.4D-01, -1.7D+00, -6.7D-01, r^2= 3.9D+01
   Bfn.  Coefficient  Atom+Function         Bfn.  Coefficient  Atom+Function  
  ----- ------------  ---------------      ----- ------------  ---------------
   427     -4.172827  25 H  s                56      3.849025   5 C  s         
   148      3.611457   9 C  py              149      3.421446   9 C  pz        
   217     -3.186938  14 C  s               174     -3.069176  11 C  s         
   164      2.789545  10 H  s               260      2.563144  17 C  s         
   250     -2.462057  16 H  s               504      2.181351  30 H  s         

 Vector   81  Occ=0.000000D+00  E= 4.049665D-02
              MO Center=  1.5D+00, -1.5D-01, -7.2D-03, r^2= 4.5D+01
   Bfn.  Coefficient  Atom+Function         Bfn.  Coefficient  Atom+Function  
  ----- ------------  ---------------      ----- ------------  ---------------
   427      7.345174  25 H  s               164     -3.293191  10 H  s         
   471     -2.812451  28 C  s               207     -2.717120  13 H  s         
    64      2.530966   5 C  py              504     -2.404982  30 H  s         
   260      2.181986  17 C  s               552      2.171495  33 C  s         
   461     -1.959097  27 H  s               174     -1.826659  11 C  s         

 Vector   82  Occ=0.000000D+00  E= 4.828511D-02
              MO Center= -2.6D-01,  4.6D-01,  6.5D-01, r^2= 4.4D+01
   Bfn.  Coefficient  Atom+Function         Bfn.  Coefficient  Atom+Function  
  ----- ------------  ---------------      ----- ------------  ---------------
   427      3.944522  25 H  s               250     -2.933234  16 H  s         
    56      2.764479   5 C  s               602      2.763716  35 N  s         
   471     -2.560869  28 C  s               561     -2.500949  33 C  pz        
   504     -2.442875  30 H  s               260      2.371197  17 C  s         
   174     -2.125070  11 C  s               480     -1.896750  28 C  pz        

 Vector   83  Occ=0.000000D+00  E= 5.282187D-02
              MO Center=  5.1D-01, -2.3D+00,  1.1D-01, r^2= 4.3D+01
   Bfn.  Coefficient  Atom+Function         Bfn.  Coefficient  Atom+Function  
  ----- ------------  ---------------      ----- ------------  ---------------
     3      2.816296   1 H  s               198      2.753381  12 H  s         
    46     -2.488651   4 H  s               427     -2.097659  25 H  s         
   250     -2.085837  16 H  s               334      2.070102  20 H  s         
   461     -1.943120  27 H  s               504      1.867433  30 H  s         
   216      1.811214  14 C  s                37     -1.620208   3 H  s         

 Vector   84  Occ=0.000000D+00  E= 5.533195D-02
              MO Center= -1.1D+00, -1.0D+00,  3.9D-01, r^2= 4.2D+01
   Bfn.  Coefficient  Atom+Function         Bfn.  Coefficient  Atom+Function  
  ----- ------------  ---------------      ----- ------------  ---------------
   207      3.162521  13 H  s               148      2.838061   9 C  py        
   343     -2.516393  21 H  s               461     -2.134938  27 H  s         
   182     -2.049585  11 C  py              250      1.987438  16 H  s         
   226     -1.810803  14 C  pz              334      1.735540  20 H  s         
   310     -1.668065  19 N  s               164      1.645336  10 H  s         

 Vector   85  Occ=0.000000D+00  E= 5.613911D-02
              MO Center=  1.7D+00, -3.1D+00, -1.3D-01, r^2= 4.3D+01
   Bfn.  Coefficient  Atom+Function         Bfn.  Coefficient  Atom+Function  
  ----- ------------  ---------------      ----- ------------  ---------------
    37      4.169247   3 H  s               361     -3.191586  22 C  py        
   241      3.048766  15 H  s               106     -2.999941   7 N  s         
    46     -2.884323   4 H  s                56      2.811462   5 C  s         
   250     -2.743946  16 H  s               130     -2.456963   8 H  s         
   403      1.716095  24 N  s               626      1.690036  36 H  s         

 Vector   86  Occ=0.000000D+00  E= 6.229139D-02
              MO Center=  4.4D-01,  7.6D-01, -8.8D-01, r^2= 4.4D+01
   Bfn.  Coefficient  Atom+Function         Bfn.  Coefficient  Atom+Function  
  ----- ------------  ---------------      ----- ------------  ---------------
    56      4.020924   5 C  s               198     -3.839448  12 H  s         
   148      3.787110   9 C  py              164     -3.804810  10 H  s         
   495      3.575456  29 H  s                 3      2.889095   1 H  s         
   182     -2.254331  11 C  py              183      2.190751  11 C  pz        
    64      2.081822   5 C  py              471      2.045818  28 C  s         

 Vector   87  Occ=0.000000D+00  E= 7.156948D-02
              MO Center= -2.4D-01,  5.0D-01, -9.6D-01, r^2= 4.7D+01
   Bfn.  Coefficient  Atom+Function         Bfn.  Coefficient  Atom+Function  
  ----- ------------  ---------------      ----- ------------  ---------------
   461      4.866367  27 H  s                56      4.713818   5 C  s         
   504     -3.487251  30 H  s               444     -3.347269  26 C  px        
   427      3.237714  25 H  s               207     -2.951547  13 H  s         
    37      2.756236   3 H  s               217     -2.463318  14 C  s         
   334      2.451422  20 H  s                64      2.384874   5 C  py        

 Vector   88  Occ=0.000000D+00  E= 7.408891D-02
              MO Center=  3.4D-01, -3.6D-01,  5.1D-01, r^2= 4.8D+01
   Bfn.  Coefficient  Atom+Function         Bfn.  Coefficient  Atom+Function  
[...]
    45     -5.346688   4 H  s               561      5.327321  33 C  pz        
   113     -5.255620   7 N  px               64     -5.184687   5 C  py        
   182      5.135482  11 C  py              470      4.940962  28 C  s         

 Vector  187  Occ=0.000000D+00  E= 4.385690D-01
              MO Center=  1.5D-01, -1.0D+00, -1.0D-01, r^2= 2.2D+01
   Bfn.  Coefficient  Atom+Function         Bfn.  Coefficient  Atom+Function  
  ----- ------------  ---------------      ----- ------------  ---------------
   361     19.481883  22 C  py               56    -15.417014   5 C  s         
   148    -13.690401   9 C  py              147     10.762218   9 C  px        
   552    -10.210541  33 C  s               217      8.598685  14 C  s         
   410     -7.961812  24 N  px               13      7.563461   2 C  s         
   149     -7.413224   9 C  pz              427      6.711085  25 H  s         

 Vector  188  Occ=0.000000D+00  E= 4.440214D-01
              MO Center= -5.2D-02,  1.1D-01,  5.3D-02, r^2= 2.4D+01
   Bfn.  Coefficient  Atom+Function         Bfn.  Coefficient  Atom+Function  
  ----- ------------  ---------------      ----- ------------  ---------------
   403     24.415672  24 N  s               260    -18.470680  17 C  s         
   148    -11.542604   9 C  py              310     10.731098  19 N  s         
   361    -10.076816  22 C  py              471     -9.598529  28 C  s         
   147     -8.464261   9 C  px              427      8.020888  25 H  s         
   174      7.278266  11 C  s               217     -7.082706  14 C  s         

 Vector  189  Occ=0.000000D+00  E= 4.471523D-01
              MO Center=  2.0D-01, -9.6D-01, -4.2D-01, r^2= 2.5D+01
   Bfn.  Coefficient  Atom+Function         Bfn.  Coefficient  Atom+Function  
  ----- ------------  ---------------      ----- ------------  ---------------
    56     17.596680   5 C  s               427     15.253328  25 H  s         
   174    -12.710748  11 C  s               361    -11.742438  22 C  py        
   602     10.519928  35 N  s               471    -10.060246  28 C  s         
   403      9.914064  24 N  s               353     -9.735772  22 C  s         
   114      9.024367   7 N  py              268     -7.434642  17 C  py        

 Vector  190  Occ=0.000000D+00  E= 4.507081D-01
              MO Center=  4.7D-01, -1.4D+00, -1.4D-02, r^2= 2.4D+01
   Bfn.  Coefficient  Atom+Function         Bfn.  Coefficient  Atom+Function  
  ----- ------------  ---------------      ----- ------------  ---------------
   260     13.590402  17 C  s               174    -11.175792  11 C  s         
   361    -10.145544  22 C  py              310     -9.285981  19 N  s         
   471      9.157366  28 C  s                13     -6.983845   2 C  s         
   182      6.311260  11 C  py              353     -6.238928  22 C  s         
   403      6.224217  24 N  s                56      6.118528   5 C  s         

 Vector  191  Occ=0.000000D+00  E= 4.552003D-01
              MO Center= -2.9D-01, -1.1D+00,  3.6D-01, r^2= 1.9D+01
   Bfn.  Coefficient  Atom+Function         Bfn.  Coefficient  Atom+Function  
  ----- ------------  ---------------      ----- ------------  ---------------
   114     11.935256   7 N  py               13     11.330337   2 C  s         
   552     -9.967261  33 C  s               361      9.337584  22 C  py        
   148     -8.713039   9 C  py               64      8.161016   5 C  py        
   106     -7.336672   7 N  s               471     -7.150127  28 C  s         
   445      6.175228  26 C  py              362     -6.044067  22 C  pz        

 Vector  192  Occ=0.000000D+00  E= 4.560200D-01
              MO Center=  5.3D-01, -7.5D-01, -1.8D-01, r^2= 2.1D+01
   Bfn.  Coefficient  Atom+Function         Bfn.  Coefficient  Atom+Function  
  ----- ------------  ---------------      ----- ------------  ---------------
   310    -11.671282  19 N  s               260     10.631830  17 C  s         
   149     -8.522556   9 C  pz              106      7.834848   7 N  s         
    12      6.478783   2 C  s               164     -6.475862  10 H  s         
   217      6.415472  14 C  s               411      5.603684  24 N  py        
    56     -5.515013   5 C  s               113      5.359494   7 N  px        

 Vector  193  Occ=0.000000D+00  E= 4.596398D-01
              MO Center= -4.4D-01, -1.3D+00, -7.3D-03, r^2= 2.3D+01
   Bfn.  Coefficient  Atom+Function         Bfn.  Coefficient  Atom+Function  
  ----- ------------  ---------------      ----- ------------  ---------------
    56     28.605798   5 C  s               217    -20.699777  14 C  s         
   148     15.886931   9 C  py              147    -15.567496   9 C  px        
   310     13.443369  19 N  s               361    -11.461266  22 C  py        
    13    -10.535344   2 C  s               216    -10.417867  14 C  s         
   427     -9.867172  25 H  s               149      9.241867   9 C  pz        

 Vector  194  Occ=0.000000D+00  E= 4.676841D-01
              MO Center= -6.6D-01,  5.5D-01,  1.8D-01, r^2= 2.2D+01
   Bfn.  Coefficient  Atom+Function         Bfn.  Coefficient  Atom+Function  
  ----- ------------  ---------------      ----- ------------  ---------------
   552     17.348340  33 C  s                56    -14.448073   5 C  s         
   471    -12.849065  28 C  s               148    -10.086050   9 C  py        
   444     -7.146617  26 C  px              360      6.524679  22 C  px        
   602     -6.092845  35 N  s               437      5.847157  26 C  s         
   403      5.626287  24 N  s               411     -5.479665  24 N  py        

 Vector  195  Occ=0.000000D+00  E= 4.690724D-01
              MO Center= -5.6D-01, -4.6D-01,  7.6D-02, r^2= 2.0D+01
   Bfn.  Coefficient  Atom+Function         Bfn.  Coefficient  Atom+Function  
  ----- ------------  ---------------      ----- ------------  ---------------
   148     17.123134   9 C  py              260    -13.659544  17 C  s         
   174     11.504997  11 C  s               403    -11.082206  24 N  s         
   411     10.984395  24 N  py              427     -9.234676  25 H  s         
   360     -9.126568  22 C  px              552     -8.816046  33 C  s         
   147      8.735647   9 C  px              139      7.868017   9 C  s         

 Vector  196  Occ=0.000000D+00  E= 4.778759D-01
              MO Center=  1.9D-01,  1.5D+00,  3.7D-01, r^2= 1.7D+01
   Bfn.  Coefficient  Atom+Function         Bfn.  Coefficient  Atom+Function  
  ----- ------------  ---------------      ----- ------------  ---------------
   427     13.324762  25 H  s               411     -7.527992  24 N  py        
   446     -5.848256  26 C  pz              148     -5.819114   9 C  py        
   471     -5.502102  28 C  s               147     -5.191605   9 C  px        
   217     -5.156206  14 C  s               285      4.763887  18 O  s         
   577      4.660767  34 O  s               360      4.438950  22 C  px        

 Vector  197  Occ=0.000000D+00  E= 4.816514D-01
              MO Center=  2.0D-01,  5.6D-01, -5.7D-02, r^2= 2.1D+01
   Bfn.  Coefficient  Atom+Function         Bfn.  Coefficient  Atom+Function  
  ----- ------------  ---------------      ----- ------------  ---------------
   471    -16.663001  28 C  s               411     16.215847  24 N  py        
   174     14.275765  11 C  s               552    -11.444991  33 C  s         
    56     -9.787774   5 C  s               602      9.776903  35 N  s         
   310      9.451289  19 N  s               114     -8.251858   7 N  py        
   260     -7.799576  17 C  s               182     -7.652868  11 C  py        

 Vector  198  Occ=0.000000D+00  E= 4.888008D-01
              MO Center= -2.3D-01, -7.1D-01,  1.8D-01, r^2= 2.1D+01
   Bfn.  Coefficient  Atom+Function         Bfn.  Coefficient  Atom+Function  
  ----- ------------  ---------------      ----- ------------  ---------------
   361     16.087601  22 C  py              174    -10.245615  11 C  s         
   260      9.035909  17 C  s               411     -8.663717  24 N  py        
    64      8.537773   5 C  py               13      8.140842   2 C  s         
   403     -7.749242  24 N  s               114      6.032352   7 N  py        
   148     -5.384921   9 C  py              240      5.342112  15 H  s         

 Vector  199  Occ=0.000000D+00  E= 4.904182D-01
              MO Center= -9.6D-02,  1.9D-02,  1.0D-01, r^2= 2.2D+01
   Bfn.  Coefficient  Atom+Function         Bfn.  Coefficient  Atom+Function  
  ----- ------------  ---------------      ----- ------------  ---------------
   148     15.826430   9 C  py              471    -14.229233  28 C  s         
    56     12.073396   5 C  s               217    -11.084309  14 C  s         
   147     -9.757153   9 C  px              353      8.474445  22 C  s         
   427     -8.041996  25 H  s               106      7.691236   7 N  s         
   403     -7.612021  24 N  s               437      6.883872  26 C  s         

 Vector  200  Occ=0.000000D+00  E= 4.938616D-01
              MO Center= -3.9D-01, -2.0D-02, -1.8D-01, r^2= 2.3D+01
   Bfn.  Coefficient  Atom+Function         Bfn.  Coefficient  Atom+Function  
  ----- ------------  ---------------      ----- ------------  ---------------
   471     30.964311  28 C  s               552    -17.084783  33 C  s         
   446     12.677943  26 C  pz               56     10.333720   5 C  s         
   503     -7.769273  30 H  s               427     -7.643132  25 H  s         
   437     -7.380031  26 C  s               444      7.041233  26 C  px        
    13     -6.823683   2 C  s               182     -6.088143  11 C  py        

 Vector  201  Occ=0.000000D+00  E= 4.972776D-01
              MO Center=  2.3D-01, -7.4D-01,  1.9D-02, r^2= 2.3D+01
   Bfn.  Coefficient  Atom+Function         Bfn.  Coefficient  Atom+Function  
  ----- ------------  ---------------      ----- ------------  ---------------
    56     26.181869   5 C  s               147    -16.806706   9 C  px        
   217    -16.116796  14 C  s               260    -13.745797  17 C  s         
   361    -13.620566  22 C  py              427     12.604771  25 H  s         
   149     10.839349   9 C  pz              285      9.074081  18 O  s         
    81     -7.882881   6 O  s               353     -7.591478  22 C  s         

 Vector  202  Occ=0.000000D+00  E= 4.992058D-01
              MO Center=  4.0D-01,  2.3D-01, -5.6D-01, r^2= 2.3D+01
   Bfn.  Coefficient  Atom+Function         Bfn.  Coefficient  Atom+Function  
  ----- ------------  ---------------      ----- ------------  ---------------
   471     26.800589  28 C  s               361    -21.836134  22 C  py        
    13    -15.748243   2 C  s               260    -14.739174  17 C  s         
    56     14.433383   5 C  s               552    -12.236952  33 C  s         
    12    -11.700549   2 C  s               174     11.597966  11 C  s         
   148     11.367577   9 C  py              446     11.097407  26 C  pz        

 Vector  203  Occ=0.000000D+00  E= 5.024476D-01
              MO Center= -1.6D-01, -5.1D-01,  2.2D-01, r^2= 2.1D+01
   Bfn.  Coefficient  Atom+Function         Bfn.  Coefficient  Atom+Function  
  ----- ------------  ---------------      ----- ------------  ---------------
   471    -15.396304  28 C  s               361     14.184491  22 C  py        
    56    -11.333951   5 C  s               552     11.127459  33 C  s         
    13      9.804844   2 C  s               403     -8.855137  24 N  s         
   444     -8.770899  26 C  px              206      6.448524  13 H  s         
   411     -5.848093  24 N  py              216     -5.423407  14 C  s         


 center of mass
 --------------
 x =  -0.00997070 y =   0.07564852 z =  -0.01637318

 moments of inertia (a.u.)
 ------------------
        8464.937813529066          -0.000000000001          -0.000000000001
          -0.000000000001        3882.465138840190          -0.000000000003
          -0.000000000001          -0.000000000003       11062.075008862364

  Mulliken analysis of the total density
  --------------------------------------

    Atom       Charge   Shell Charges
 -----------   ------   -------------------------------------------------------
    1 H    1     0.86   0.76  0.13 -0.00  0.03 -0.06
    2 C    6     6.24   2.01  0.66  0.23  0.08  2.07  1.03  0.00  0.06  0.11
    3 H    1     1.00   0.76  0.26  0.00  0.03 -0.05
    4 H    1     0.86   0.76  0.13 -0.00  0.03 -0.06
    5 C    6     5.05   2.01  0.68  0.07 -0.17  1.89  0.30  0.03  0.24 -0.01
    6 O    8     8.74   2.01  0.82  0.99  0.16  2.80  1.83  0.15  0.01 -0.02
    7 N    7     7.80   2.01  0.72  0.95 -0.00  2.45  1.44  0.11  0.05  0.07
    8 H    1     0.98   0.76  0.20  0.00  0.06 -0.03
    9 C    6     5.76   2.01  0.66 -0.06  0.02  2.00  1.14 -0.07  0.14 -0.07
   10 H    1     1.29   0.78  0.44 -0.03  0.03  0.08
   11 C    6     5.77   2.01  0.67  0.20  0.11  2.03  0.57  0.04  0.09  0.06
   12 H    1     1.02   0.78  0.30 -0.00  0.03 -0.10
   13 H    1     1.09   0.79  0.34 -0.02  0.03 -0.05
   14 C    6     6.81   2.01  0.66  0.79  0.05  2.05  0.84  0.04  0.09  0.28
   15 H    1     0.69   0.77  0.03 -0.03  0.03 -0.10
   16 H    1     0.70   0.78  0.01  0.00  0.03 -0.12
   17 C    6     4.77   2.01  0.68  0.07  0.18  1.90 -0.09 -0.09  0.24 -0.11
   18 O    8     8.72   2.01  0.81  1.00  0.09  2.81  1.87  0.13  0.02 -0.01
   19 N    7     7.46   2.01  0.72  0.91 -0.04  2.47  1.27  0.07  0.04  0.00
   20 H    1     0.95   0.75  0.18 -0.01  0.06 -0.03
   21 H    1     0.96   0.76  0.18  0.00  0.05 -0.04
   22 C    6     4.79   2.01  0.68  0.09  0.05  1.88  0.15  0.04  0.23 -0.34
   23 O    8     8.92   2.01  0.82  1.04  0.20  2.80  1.89  0.16  0.01  0.00
   24 N    7     7.17   2.01  0.72  0.84 -0.21  2.45  1.44 -0.15  0.05  0.03
   25 H    1     0.94   0.73  0.32  0.00  0.06 -0.17
   26 C    6     6.51   2.01  0.67  0.08 -0.00  1.99  1.36  0.12  0.14  0.15
   27 H    1     1.01   0.78  0.22 -0.01  0.03 -0.00
   28 C    6     5.57   2.01  0.66  0.06 -0.18  1.99  0.93  0.02  0.10 -0.01
   29 H    1     1.20   0.77  0.41  0.01  0.03 -0.01
   30 H    1     1.18   0.77  0.43 -0.01  0.03 -0.04
   31 S   16    15.66   2.00  2.03  0.86  0.72  0.05  6.00  2.32  1.66  0.06  0.10 -0.14
   32 H    1     0.94   0.69  0.16  0.01  0.03  0.04
   33 C    6     4.55   2.01  0.68  0.06  0.06  1.88 -0.08 -0.08  0.23 -0.22
   34 O    8     8.81   2.01  0.82  1.03  0.16  2.79  1.84  0.15  0.01 -0.00
   35 N    7     7.25   2.01  0.72  0.83 -0.15  2.47  1.26  0.09  0.04 -0.01
   36 H    1     1.02   0.76  0.24  0.00  0.05 -0.03
   37 H    1     0.92   0.74  0.19 -0.02  0.06 -0.05

       Multipole analysis of the density wrt the origin
       ------------------------------------------------

     L   x y z        total         open         nuclear
     -   - - -        -----         ----         -------
     0   0 0 0      0.000000      0.000000    154.000000

     1   1 0 0     -0.276695      0.000000     -0.000000
     1   0 1 0     -2.015686      0.000000      0.000000
     1   0 0 1      0.756401      0.000000     -0.000000

     2   2 0 0    -80.908814      0.000000   1768.780161
     2   1 1 0      1.046607      0.000000    -14.296141
     2   1 0 1     -1.046991      0.000000     -6.445418
     2   0 2 0   -105.980058      0.000000   4208.701732
     2   0 1 1     -6.872325      0.000000    -19.985618
     2   0 0 2    -83.357079      0.000000    384.889921


 Task  times  cpu:    12568.2s     wall:    12606.1s


                                NWChem Input Module
                                -------------------


 Summary of allocated global arrays
-----------------------------------
  No active global arrays


MA_summarize_allocated_blocks: starting scan ...
MA_summarize_allocated_blocks: scan completed: 0 heap blocks, 0 stack blocks
MA usage statistics:

	allocation statistics:
					      heap	     stack
					      ----	     -----
	current number of blocks	         0	         0
	maximum number of blocks	        16	        14
	current total bytes		         0	         0
	maximum total bytes		    146664	  35431464
	maximum total K-bytes		       147	     35432
	maximum total M-bytes		         1	        36


                                     CITATION
                                     --------
                Please cite the following reference when publishing
                           results obtained with NWChem:

          E. Apra, E. J. Bylaska, W. A. de Jong, N. Govind, K. Kowalski,
       T. P. Straatsma, M. Valiev, H. J. J. van Dam, Y. Alexeev, J. Anchell,
       V. Anisimov, F. W. Aquino, R. Atta-Fynn, J. Autschbach, N. P. Bauman,
     J. C. Becca, D. E. Bernholdt, K. Bhaskaran-Nair, S. Bogatko, P. Borowski,
         J. Boschen, J. Brabec, A. Bruner, E. Cauet, Y. Chen, G. N. Chuev,
      C. J. Cramer, J. Daily, M. J. O. Deegan, T. H. Dunning Jr., M. Dupuis,
   K. G. Dyall, G. I. Fann, S. A. Fischer, A. Fonari, H. Fruchtl, L. Gagliardi,
      J. Garza, N. Gawande, S. Ghosh, K. Glaesemann, A. W. Gotz, J. Hammond,
       V. Helms, E. D. Hermes, K. Hirao, S. Hirata, M. Jacquelin, L. Jensen,
   B. G. Johnson, H. Jonsson, R. A. Kendall, M. Klemm, R. Kobayashi, V. Konkov,
      S. Krishnamoorthy, M. Krishnan, Z. Lin, R. D. Lins, R. J. Littlefield,
      A. J. Logsdail, K. Lopata, W. Ma, A. V. Marenich, J. Martin del Campo,
   D. Mejia-Rodriguez, J. E. Moore, J. M. Mullin, T. Nakajima, D. R. Nascimento,
    J. A. Nichols, P. J. Nichols, J. Nieplocha, A. Otero-de-la-Roza, B. Palmer,
    A. Panyala, T. Pirojsirikul, B. Peng, R. Peverati, J. Pittner, L. Pollack,
   R. M. Richard, P. Sadayappan, G. C. Schatz, W. A. Shelton, D. W. Silverstein,
   D. M. A. Smith, T. A. Soares, D. Song, M. Swart, H. L. Taylor, G. S. Thomas,
            V. Tipparaju, D. G. Truhlar, K. Tsemekhman, T. Van Voorhis,
      A. Vazquez-Mayagoitia, P. Verma, O. Villa, A. Vishnu, K. D. Vogiatzis,
        D. Wang, J. H. Weare, M. J. Williamson, T. L. Windus, K. Wolinski,
        A. T. Wong, Q. Wu, C. Yang, Q. Yu, M. Zacharias, Z. Zhang, Y. Zhao,
                                and R. J. Harrison
                        "NWChem: Past, present, and future
                         J. Chem. Phys. 152, 184102 (2020)
                               doi:10.1063/5.0004997

                                      AUTHORS
                                      -------
  E. Apra, E. J. Bylaska, N. Govind, K. Kowalski, M. Valiev, D. Mejia-Rodriguez,
       A. Kunitsa, N. P. Bauman, A. Panyala, W. A. de Jong, T. P. Straatsma,
   H. J. J. van Dam, D. Wang, T. L. Windus, J. Hammond, J. Autschbach, A. Woods,
    K. Bhaskaran-Nair, J. Brabec, K. Lopata, S. A. Fischer, S. Krishnamoorthy,
     M. Jacquelin, W. Ma, M. Klemm, O. Villa, Y. Chen, V. Anisimov, F. Aquino,
     S. Hirata, M. T. Hackler, E. Hermes, L. Jensen, J. E. Moore, J. C. Becca,
      V. Konjkov, T. Risthaus, M. Malagoli, A. Marenich, A. Otero-de-la-Roza,
        J. Mullin, P. Nichols, R. Peverati, J. Pittner, Y. Zhao, P.-D. Fan,
        A. Fonari, M. J. Williamson, R. J. Harrison, J. R. Rehr, M. Dupuis,
     D. Silverstein, D. M. A. Smith, J. Nieplocha, V. Tipparaju, M. Krishnan,
     B. E. Van Kuiken, A. Vazquez-Mayagoitia, M. Swart, Q. Wu, T. Van Voorhis,
     A. A. Auer, M. Nooijen, L. D. Crosby, E. Brown, G. Cisneros, G. I. Fann,
   H. Fruchtl, J. Garza, K. Hirao, R. A. Kendall, J. A. Nichols, K. Tsemekhman,
    K. Wolinski, J. Anchell, D. E. Bernholdt, P. Borowski, T. Clark, D. Clerc,
   H. Dachsel, M. J. O. Deegan, K. Dyall, D. Elwood, E. Glendening, M. Gutowski,
   A. C. Hess, J. Jaffe, B. G. Johnson, J. Ju, R. Kobayashi, R. Kutteh, Z. Lin,
   R. Littlefield, X. Long, B. Meng, T. Nakajima, S. Niu, L. Pollack, M. Rosing,
   K. Glaesemann, G. Sandrone, M. Stave, H. Taylor, G. Thomas, J. H. van Lenthe,
                               A. T. Wong, Z. Zhang.

 Total times  cpu:    12568.2s     wall:    12607.1s
