export TMOUT=5400
export TMPDIR=/tmp
export PTMPDIR=/tmp/ptmp
 argument  1 = inputs/GLN_CYS_4.nw



============================== echo of input deck ==============================
start GLN_CYS_4
geometry
H         13.28300        0.87000       -3.58200
C         13.80800        1.78200       -3.30100
H         14.81800        1.76200       -3.70600
H         13.84400        1.86500       -2.21700
C         13.06700        2.96900       -3.86900
O         12.04400        2.80400       -4.52300
N         13.58100        4.17100       -3.61600
H         14.43400        4.23600       -3.08000
C         13.02700        5.42700       -4.12700
H         12.67000        5.24600       -5.14200
C         11.83400        5.84700       -3.24000
H         11.11000        5.03200       -3.21800
H         12.18600        6.00400       -2.21900
C         11.10600        7.11700       -3.70600
H         10.19100        7.23200       -3.12400
H         11.73800        7.98600       -3.51500
C         10.75000        7.07900       -5.18700
O         11.28900        7.82600       -5.98600
N          9.92300        6.16000       -5.63100
H          9.54200        5.46700       -5.01100
H          9.75300        6.14700       -6.62100
C         14.11700        6.51000       -4.19700
O         14.99300        6.54900       -3.33700
N         14.04600        7.39100       -5.20200
H         13.26900        7.31800       -5.84600
C         15.06000        8.41900       -5.48100
H         15.82000        8.40000       -4.69800
C         15.75300        8.09100       -6.81500
H         15.03400        8.17400       -7.63100
H         16.55100        8.81800       -6.98000
S         16.46400        6.41600       -6.80100
H         17.09800        6.49300       -7.97700
C         14.50300        9.85600       -5.50600
O         15.26700       10.81200       -5.50800
N         13.19000       10.05600       -5.53900
H         12.85600       11.00500       -5.56100
H         12.55100        9.27500       -5.59400
end

basis
 * library aug-cc-pvdz
end

echo

scf
 direct
end

task scf energy
================================================================================


                                         
                                         


             Northwest Computational Chemistry Package (NWChem) 7.2.0
             --------------------------------------------------------


                    Environmental Molecular Sciences Laboratory
                       Pacific Northwest National Laboratory
                                Richland, WA 99352

                              Copyright (c) 1994-2022
                       Pacific Northwest National Laboratory
                            Battelle Memorial Institute

             NWChem is an open-source computational chemistry package
                        distributed under the terms of the
                      Educational Community License (ECL) 2.0
             A copy of the license is included with this distribution
                              in the LICENSE.TXT file

                                  ACKNOWLEDGMENT
                                  --------------

            This software and its documentation were developed at the
            EMSL at Pacific Northwest National Laboratory, a multiprogram
            national laboratory, operated for the U.S. Department of Energy
            by Battelle under Contract Number DE-AC05-76RL01830. Support
            for this work was provided by the Department of Energy Office
            of Biological and Environmental Research, Office of Basic
            Energy Sciences, and the Office of Advanced Scientific Computing.


           Job information
           ---------------

    hostname        = nova18-36
    program         = /opt/rit/el9/20230413/app/linux-rhel9-x86_64_v3/gcc-11.2.1/nwchem-7.2.0-oxtctbuhfuzyfaoziquq6bki22grib3g/bin/nwchem
    date            = Thu Jul  3 13:38:33 2025

    compiled        = Wed_May_17_23:46:39_2023
    source          = /tmp/root/spack-stage/spack-stage-nwchem-7.2.0-oxtctbuhfuzyfaoziquq6bki22grib3g/spack-src
    nwchem branch   = 7.2.0
    nwchem revision = d0d141fd
    ga revision     = 5.8.0
    use scalapack   = T
    input           = inputs/GLN_CYS_4.nw
    prefix          = GLN_CYS_4.
    data base       = ./GLN_CYS_4.db
    status          = startup
    nproc           =        1
    time left       =     -1s



           Memory information
           ------------------

    heap     =   26214394 doubles =    200.0 Mbytes
    stack    =   26214399 doubles =    200.0 Mbytes
    global   =   52428800 doubles =    400.0 Mbytes (distinct from heap & stack)
    total    =  104857593 doubles =    800.0 Mbytes
    verify   = yes
    hardfail = no 


           Directory information
           ---------------------

  0 permanent = .
  0 scratch   = .




                                NWChem Input Module
                                -------------------



 Scaling coordinates for geometry "geometry" by  1.889725989
 (inverse scale =  0.529177249)

 C1  symmetry detected

          ------
          auto-z
          ------
  no constraints, skipping    0.0000000000000000     
  no constraints, skipping    0.0000000000000000     


                             Geometry "geometry" -> ""
                             -------------------------

 Output coordinates in angstroms (scale by  1.889725989 to convert to a.u.)

  No.       Tag          Charge          X              Y              Z
 ---- ---------------- ---------- -------------- -------------- --------------
    1 H                    1.0000     2.10125687    -5.46590380    -0.23855224
    2 C                    6.0000     2.16572011    -4.56484147     0.36993866
    3 H                    1.0000     3.11612923    -4.06717197     0.18671047
    4 H                    1.0000     2.08013678    -4.82636780     1.42232664
    5 C                    6.0000     1.03625451    -3.63630754    -0.00795843
    6 O                    8.0000     0.23361572    -3.96013009    -0.87535680
    7 N                    7.0000     0.96968159    -2.47901088     0.64720680
    8 H                    1.0000     1.67049869    -2.26895049     1.34280728
    9 C                    6.0000    -0.02479548    -1.43757058     0.37889644
   10 H                    1.0000    -0.19236013    -1.40557387    -0.69875531
   11 C                    6.0000    -1.34707473    -1.81260032     1.08412569
   12 H                    1.0000    -1.65539251    -2.80252257     0.74666593
   13 H                    1.0000    -1.17427785    -1.86923691     2.16019610
   14 C                    6.0000    -2.50787970    -0.83981018     0.82673267
   15 H                    1.0000    -3.42649469    -1.27556206     1.22099247
   16 H                    1.0000    -2.32175839     0.09361239     1.36072438
   17 C                    6.0000    -2.69973329    -0.53416541    -0.65357624
   18 O                    8.0000    -2.47004330     0.57511240    -1.10488129
   19 N                    7.0000    -3.02116673    -1.50428790    -1.47890581
   20 H                    1.0000    -3.11762814    -2.44913249    -1.15061645
   21 H                    1.0000    -3.09337516    -1.26329077    -2.45146703
   22 C                    6.0000     0.50340332    -0.06027106     0.81471869
   23 O                    8.0000     1.21127398     0.03223390     1.81414801
   24 N                    7.0000     0.14167610     0.99849103     0.08027791
   25 H                    1.0000    -0.47894454     0.84508001    -0.70399824
   26 C                    6.0000     0.64066131     2.36605545     0.28908961
   27 H                    1.0000     1.27443492     2.38868279     1.17727259
   28 C                    6.0000     1.50699320     2.77330985    -0.91548580
   29 H                    1.0000     0.88551943     2.83238821    -1.80990521
   30 H                    1.0000     1.93037701     3.76096114    -0.72093738
   31 S                   16.0000     2.85911002     1.58764144    -1.19353710
   32 H                    1.0000     3.48803186     2.27295735    -2.15564958
   33 C                    6.0000    -0.47056110     3.40762145     0.52608758
   34 O                    8.0000    -0.18761844     4.52865820     0.92715621
   35 N                    7.0000    -1.73731916     3.09074817     0.28119304
   36 H                    1.0000    -2.44022849     3.79327133     0.43937232
   37 H                    1.0000    -1.97754049     2.18739707    -0.10293910

      Atomic Mass 
      ----------- 

      H                  1.007825
      C                 12.000000
      O                 15.994910
      N                 14.003070
      S                 31.972070


 Effective nuclear repulsion energy (a.u.)    1694.5034307403

            Nuclear Dipole moment (a.u.) 
            ----------------------------
        X                 Y               Z
 ---------------- ---------------- ----------------
    -0.0000000000    -0.0000000000    -0.0000000000



                                Z-matrix (autoz)
                                -------- 

 Units are Angstrom for bonds and degrees for angles

      Type          Name      I     J     K     L     M      Value
      ----------- --------  ----- ----- ----- ----- ----- ----------
    1 Stretch                  1     2                       1.08919
    2 Stretch                  2     3                       1.08836
    3 Stretch                  2     4                       1.08777
    4 Stretch                  2     5                       1.51019
    5 Stretch                  5     6                       1.22534
    6 Stretch                  5     7                       1.33154
    7 Stretch                  7     8                       1.00952
    8 Stretch                  7     9                       1.46478
    9 Stretch                  9    10                       1.09107
   10 Stretch                  9    11                       1.54480
   11 Stretch                  9    22                       1.53814
   12 Stretch                 11    12                       1.09036
   13 Stretch                 11    13                       1.09133
   14 Stretch                 11    14                       1.53624
   15 Stretch                 14    15                       1.09049
   16 Stretch                 14    16                       1.09136
   17 Stretch                 14    17                       1.52366
   18 Stretch                 17    18                       1.21940
   19 Stretch                 17    19                       1.31363
   20 Stretch                 19    20                       1.00489
   21 Stretch                 19    21                       1.00457
   22 Stretch                 22    23                       1.22821
   23 Stretch                 22    24                       1.33837
   24 Stretch                 24    25                       1.01183
   25 Stretch                 24    26                       1.47065
   26 Stretch                 26    27                       1.09135
   27 Stretch                 26    28                       1.53863
   28 Stretch                 26    33                       1.54138
   29 Stretch                 28    29                       1.09074
   30 Stretch                 28    30                       1.09204
   31 Stretch                 28    31                       1.81971
   32 Stretch                 31    32                       1.33823
   33 Stretch                 33    34                       1.22378
   34 Stretch                 33    35                       1.32855
   35 Stretch                 35    36                       1.00630
   36 Stretch                 35    37                       1.01060
   37 Bend                     1     2     3               109.62830
   38 Bend                     1     2     4               109.69049
   39 Bend                     1     2     5               108.94071
   40 Bend                     2     5     6               120.30107
   41 Bend                     2     5     7               116.65751
   42 Bend                     3     2     4               109.96953
   43 Bend                     3     2     5               109.25816
   44 Bend                     4     2     5               109.33395
   45 Bend                     5     7     8               119.02385
   46 Bend                     5     7     9               124.17787
   47 Bend                     6     5     7               123.04107
   48 Bend                     7     9    10               107.82079
   49 Bend                     7     9    11               108.95961
   50 Bend                     7     9    22               110.58492
   51 Bend                     8     7     9               116.71736
   52 Bend                     9    11    12               108.73261
   53 Bend                     9    11    13               109.09925
   54 Bend                     9    11    14               114.61720
   55 Bend                     9    22    23               119.73055
   56 Bend                     9    22    24               117.39105
   57 Bend                    10     9    11               109.06049
   58 Bend                    10     9    22               107.83865
   59 Bend                    11     9    22               112.45548
   60 Bend                    11    14    15               108.83899
   61 Bend                    11    14    16               109.31412
   62 Bend                    11    14    17               112.64056
   63 Bend                    12    11    13               107.62724
   64 Bend                    12    11    14               108.02190
   65 Bend                    13    11    14               108.52441
   66 Bend                    14    17    18               121.22097
   67 Bend                    14    17    19               119.54273
   68 Bend                    15    14    16               107.97043
   69 Bend                    15    14    17               108.98641
   70 Bend                    16    14    17               108.98215
   71 Bend                    17    19    20               120.83778
   72 Bend                    17    19    21               116.65908
   73 Bend                    18    17    19               119.03695
   74 Bend                    20    19    21               122.34016
   75 Bend                    22    24    25               118.11110
   76 Bend                    22    24    26               124.47267
   77 Bend                    23    22    24               122.86969
   78 Bend                    24    26    27               109.38229
   79 Bend                    24    26    28               109.02705
   80 Bend                    24    26    33               113.92835
   81 Bend                    25    24    26               117.33268
   82 Bend                    26    28    29               109.60304
   83 Bend                    26    28    30               108.55452
   84 Bend                    26    28    31               111.44049
   85 Bend                    26    33    34               120.17979
   86 Bend                    26    33    35               119.86002
   87 Bend                    27    26    28               107.73871
   88 Bend                    27    26    33               106.23133
   89 Bend                    28    26    33               110.33066
   90 Bend                    28    31    32                97.20296
   91 Bend                    29    28    30               108.54208
   92 Bend                    29    28    31               109.47276
   93 Bend                    30    28    31               109.17353
   94 Bend                    33    35    36               118.06892
   95 Bend                    33    35    37               120.65781
   96 Bend                    34    33    35               119.95675
   97 Bend                    36    35    37               121.18141
   98 Torsion                  1     2     5     6           0.23594
   99 Torsion                  1     2     5     7        -179.97184
  100 Torsion                  2     5     7     8           0.98673
  101 Torsion                  2     5     7     9         177.60318
  102 Torsion                  3     2     5     6         119.97778
  103 Torsion                  3     2     5     7         -60.23000
  104 Torsion                  4     2     5     6        -119.62666
  105 Torsion                  4     2     5     7          60.16556
  106 Torsion                  5     7     9    10         -37.51294
  107 Torsion                  5     7     9    11          80.72528
  108 Torsion                  5     7     9    22        -155.18803
  109 Torsion                  6     5     7     8        -179.22728
  110 Torsion                  6     5     7     9          -2.61082
  111 Torsion                  7     9    11    12         -55.97462
  112 Torsion                  7     9    11    13          61.14265
  113 Torsion                  7     9    11    14        -176.95395
  114 Torsion                  7     9    22    23         -35.57876
  115 Torsion                  7     9    22    24         145.46366
  116 Torsion                  8     7     9    10         139.17488
  117 Torsion                  8     7     9    11        -102.58691
  118 Torsion                  8     7     9    22          21.49979
  119 Torsion                  9    11    14    15         170.49277
  120 Torsion                  9    11    14    16         -71.79656
  121 Torsion                  9    11    14    17          49.51083
  122 Torsion                  9    22    24    25           1.73904
  123 Torsion                  9    22    24    26        -174.84110
  124 Torsion                 10     9    11    12          61.48111
  125 Torsion                 10     9    11    13         178.59838
  126 Torsion                 10     9    11    14         -59.49823
  127 Torsion                 10     9    22    23        -153.24290
  128 Torsion                 10     9    22    24          27.79952
  129 Torsion                 11     9    22    23          86.47815
  130 Torsion                 11     9    22    24         -92.47943
  131 Torsion                 11    14    17    18        -112.04081
  132 Torsion                 11    14    17    19          62.77867
  133 Torsion                 12    11     9    22        -178.94813
  134 Torsion                 12    11    14    15          49.12318
  135 Torsion                 12    11    14    16         166.83385
  136 Torsion                 12    11    14    17         -71.85876
  137 Torsion                 13    11     9    22         -61.83086
  138 Torsion                 13    11    14    15         -67.29118
  139 Torsion                 13    11    14    16          50.41949
  140 Torsion                 13    11    14    17         171.72688
  141 Torsion                 14    11     9    22          60.07253
  142 Torsion                 14    17    19    20          -1.66880
  143 Torsion                 14    17    19    21        -177.13496
  144 Torsion                 15    14    17    18         127.06152
  145 Torsion                 15    14    17    19         -58.11900
  146 Torsion                 16    14    17    18           9.45541
  147 Torsion                 16    14    17    19        -175.72512
  148 Torsion                 18    17    19    20         173.26434
  149 Torsion                 18    17    19    21          -2.20182
  150 Torsion                 22    24    26    27          -4.75622
  151 Torsion                 22    24    26    28         112.82275
  152 Torsion                 22    24    26    33        -123.45985
  153 Torsion                 23    22    24    25        -177.18321
  154 Torsion                 23    22    24    26           6.23664
  155 Torsion                 24    26    28    29          65.53892
  156 Torsion                 24    26    28    30        -176.06162
  157 Torsion                 24    26    28    31         -55.79601
  158 Torsion                 24    26    33    34         168.00870
  159 Torsion                 24    26    33    35         -12.66687
  160 Torsion                 25    24    26    27         178.63928
  161 Torsion                 25    24    26    28         -63.78175
  162 Torsion                 25    24    26    33          59.93565
  163 Torsion                 26    28    31    32        -173.31956
  164 Torsion                 26    33    35    36        -179.59370
  165 Torsion                 26    33    35    37          -3.03782
  166 Torsion                 27    26    28    29        -175.84834
  167 Torsion                 27    26    28    30         -57.44888
  168 Torsion                 27    26    28    31          62.81673
  169 Torsion                 27    26    33    34          47.52281
  170 Torsion                 27    26    33    35        -133.15276
  171 Torsion                 28    26    33    34         -68.98196
  172 Torsion                 28    26    33    35         110.34247
  173 Torsion                 29    28    26    33         -60.28622
  174 Torsion                 29    28    31    32          65.26969
  175 Torsion                 30    28    26    33          58.11324
  176 Torsion                 30    28    31    32         -53.41905
  177 Torsion                 31    28    26    33         178.37885
  178 Torsion                 34    33    35    36          -0.26775
  179 Torsion                 34    33    35    37         176.28813


            XYZ format geometry
            -------------------
    37
 geometry
 H                     2.10125687    -5.46590380    -0.23855224
 C                     2.16572011    -4.56484147     0.36993866
 H                     3.11612923    -4.06717197     0.18671047
 H                     2.08013678    -4.82636780     1.42232664
 C                     1.03625451    -3.63630754    -0.00795843
 O                     0.23361572    -3.96013009    -0.87535680
 N                     0.96968159    -2.47901088     0.64720680
 H                     1.67049869    -2.26895049     1.34280728
 C                    -0.02479548    -1.43757058     0.37889644
 H                    -0.19236013    -1.40557387    -0.69875531
 C                    -1.34707473    -1.81260032     1.08412569
 H                    -1.65539251    -2.80252257     0.74666593
 H                    -1.17427785    -1.86923691     2.16019610
 C                    -2.50787970    -0.83981018     0.82673267
 H                    -3.42649469    -1.27556206     1.22099247
 H                    -2.32175839     0.09361239     1.36072438
 C                    -2.69973329    -0.53416541    -0.65357624
 O                    -2.47004330     0.57511240    -1.10488129
 N                    -3.02116673    -1.50428790    -1.47890581
 H                    -3.11762814    -2.44913249    -1.15061645
 H                    -3.09337516    -1.26329077    -2.45146703
 C                     0.50340332    -0.06027106     0.81471869
 O                     1.21127398     0.03223390     1.81414801
 N                     0.14167610     0.99849103     0.08027791
 H                    -0.47894454     0.84508001    -0.70399824
 C                     0.64066131     2.36605545     0.28908961
 H                     1.27443492     2.38868279     1.17727259
 C                     1.50699320     2.77330985    -0.91548580
 H                     0.88551943     2.83238821    -1.80990521
 H                     1.93037701     3.76096114    -0.72093738
 S                     2.85911002     1.58764144    -1.19353710
 H                     3.48803186     2.27295735    -2.15564958
 C                    -0.47056110     3.40762145     0.52608758
 O                    -0.18761844     4.52865820     0.92715621
 N                    -1.73731916     3.09074817     0.28119304
 H                    -2.44022849     3.79327133     0.43937232
 H                    -1.97754049     2.18739707    -0.10293910

 ==============================================================================
                                internuclear distances
 ------------------------------------------------------------------------------
       center one      |      center two      | atomic units |  angstroms
 ------------------------------------------------------------------------------
    2 C                |   1 H                |     2.05827  |     1.08919
    3 H                |   2 C                |     2.05670  |     1.08836
    4 H                |   2 C                |     2.05559  |     1.08777
    5 C                |   2 C                |     2.85385  |     1.51019
    6 O                |   5 C                |     2.31557  |     1.22534
    7 N                |   5 C                |     2.51625  |     1.33154
    8 H                |   7 N                |     1.90772  |     1.00952
    9 C                |   7 N                |     2.76803  |     1.46478
   10 H                |   9 C                |     2.06182  |     1.09107
   11 C                |   9 C                |     2.91926  |     1.54480
   12 H                |  11 C                |     2.06048  |     1.09036
   13 H                |  11 C                |     2.06231  |     1.09133
   14 C                |  11 C                |     2.90308  |     1.53624
   15 H                |  14 C                |     2.06073  |     1.09049
   16 H                |  14 C                |     2.06237  |     1.09136
   17 C                |  14 C                |     2.87930  |     1.52366
   18 O                |  17 C                |     2.30433  |     1.21940
   19 N                |  17 C                |     2.48240  |     1.31363
   20 H                |  19 N                |     1.89897  |     1.00489
   21 H                |  19 N                |     1.89837  |     1.00457
   22 C                |   9 C                |     2.90667  |     1.53814
   23 O                |  22 C                |     2.32098  |     1.22821
   24 N                |  22 C                |     2.52915  |     1.33837
   25 H                |  24 N                |     1.91208  |     1.01183
   26 C                |  24 N                |     2.77913  |     1.47065
   27 H                |  26 C                |     2.06236  |     1.09135
   28 C                |  26 C                |     2.90759  |     1.53863
   29 H                |  28 C                |     2.06119  |     1.09074
   30 H                |  28 C                |     2.06366  |     1.09204
   31 S                |  28 C                |     3.43875  |     1.81971
   32 H                |  31 S                |     2.52889  |     1.33823
   33 C                |  26 C                |     2.91278  |     1.54138
   34 O                |  33 C                |     2.31261  |     1.22378
   35 N                |  33 C                |     2.51060  |     1.32855
   36 H                |  35 N                |     1.90163  |     1.00630
   37 H                |  35 N                |     1.90975  |     1.01060
 ------------------------------------------------------------------------------
                         number of included internuclear distances:         36
 ==============================================================================



 ==============================================================================
                                 internuclear angles
 ------------------------------------------------------------------------------
        center 1       |       center 2       |       center 3       |  degrees
 ------------------------------------------------------------------------------
    1 H                |   2 C                |   3 H                |   109.63
    1 H                |   2 C                |   4 H                |   109.69
    1 H                |   2 C                |   5 C                |   108.94
    3 H                |   2 C                |   4 H                |   109.97
    3 H                |   2 C                |   5 C                |   109.26
    4 H                |   2 C                |   5 C                |   109.33
    2 C                |   5 C                |   6 O                |   120.30
    2 C                |   5 C                |   7 N                |   116.66
    6 O                |   5 C                |   7 N                |   123.04
    5 C                |   7 N                |   8 H                |   119.02
    5 C                |   7 N                |   9 C                |   124.18
    8 H                |   7 N                |   9 C                |   116.72
    7 N                |   9 C                |  10 H                |   107.82
    7 N                |   9 C                |  11 C                |   108.96
    7 N                |   9 C                |  22 C                |   110.58
   10 H                |   9 C                |  11 C                |   109.06
   10 H                |   9 C                |  22 C                |   107.84
   11 C                |   9 C                |  22 C                |   112.46
    9 C                |  11 C                |  12 H                |   108.73
    9 C                |  11 C                |  13 H                |   109.10
    9 C                |  11 C                |  14 C                |   114.62
   12 H                |  11 C                |  13 H                |   107.63
   12 H                |  11 C                |  14 C                |   108.02
   13 H                |  11 C                |  14 C                |   108.52
   11 C                |  14 C                |  15 H                |   108.84
   11 C                |  14 C                |  16 H                |   109.31
   11 C                |  14 C                |  17 C                |   112.64
   15 H                |  14 C                |  16 H                |   107.97
   15 H                |  14 C                |  17 C                |   108.99
   16 H                |  14 C                |  17 C                |   108.98
   14 C                |  17 C                |  18 O                |   121.22
   14 C                |  17 C                |  19 N                |   119.54
   18 O                |  17 C                |  19 N                |   119.04
   17 C                |  19 N                |  20 H                |   120.84
   17 C                |  19 N                |  21 H                |   116.66
   20 H                |  19 N                |  21 H                |   122.34
    9 C                |  22 C                |  23 O                |   119.73
    9 C                |  22 C                |  24 N                |   117.39
   23 O                |  22 C                |  24 N                |   122.87
   22 C                |  24 N                |  25 H                |   118.11
   22 C                |  24 N                |  26 C                |   124.47
   25 H                |  24 N                |  26 C                |   117.33
   24 N                |  26 C                |  27 H                |   109.38
   24 N                |  26 C                |  28 C                |   109.03
   24 N                |  26 C                |  33 C                |   113.93
   27 H                |  26 C                |  28 C                |   107.74
   27 H                |  26 C                |  33 C                |   106.23
   28 C                |  26 C                |  33 C                |   110.33
   26 C                |  28 C                |  29 H                |   109.60
   26 C                |  28 C                |  30 H                |   108.55
   26 C                |  28 C                |  31 S                |   111.44
   29 H                |  28 C                |  30 H                |   108.54
   29 H                |  28 C                |  31 S                |   109.47
   30 H                |  28 C                |  31 S                |   109.17
   28 C                |  31 S                |  32 H                |    97.20
   26 C                |  33 C                |  34 O                |   120.18
   26 C                |  33 C                |  35 N                |   119.86
   34 O                |  33 C                |  35 N                |   119.96
   33 C                |  35 N                |  36 H                |   118.07
   33 C                |  35 N                |  37 H                |   120.66
   36 H                |  35 N                |  37 H                |   121.18
 ------------------------------------------------------------------------------
                            number of included internuclear angles:         61
 ==============================================================================



  library name resolved from: environment
  library file name is: </opt/rit/el9/20230413/app/linux-rhel9-x86_64_v3/gcc-11.2.1/nwchem-7.2.0-oxtctbuhfuzyfaoziquq6bki22grib3g/share/nwchem/libraries/>
  


 Summary of "ao basis" -> "" (cartesian)
 ------------------------------------------------------------------------------
       Tag                 Description            Shells   Functions and Types
 ---------------- ------------------------------  ------  ---------------------
 *                        aug-cc-pvdz                 on all atoms 


                      Basis "ao basis" -> "ao basis" (cartesian)
                      -----
  H (Hydrogen)
  ------------
            Exponent  Coefficients 
       -------------- ---------------------------------------------------------
  1 S  1.30100000E+01  0.019685
  1 S  1.96200000E+00  0.137977
  1 S  4.44600000E-01  0.478148

  2 S  1.22000000E-01  1.000000

  3 S  2.97400000E-02  1.000000

  4 P  7.27000000E-01  1.000000

  5 P  1.41000000E-01  1.000000

  C (Carbon)
  ----------
            Exponent  Coefficients 
       -------------- ---------------------------------------------------------
  1 S  6.66500000E+03  0.000692
  1 S  1.00000000E+03  0.005329
  1 S  2.28000000E+02  0.027077
  1 S  6.47100000E+01  0.101718
  1 S  2.10600000E+01  0.274740
  1 S  7.49500000E+00  0.448564
  1 S  2.79700000E+00  0.285074
  1 S  5.21500000E-01  0.015204

  2 S  6.66500000E+03 -0.000146
  2 S  1.00000000E+03 -0.001154
  2 S  2.28000000E+02 -0.005725
  2 S  6.47100000E+01 -0.023312
  2 S  2.10600000E+01 -0.063955
  2 S  7.49500000E+00 -0.149981
  2 S  2.79700000E+00 -0.127262
  2 S  5.21500000E-01  0.544529

  3 S  1.59600000E-01  1.000000

  4 S  4.69000000E-02  1.000000

  5 P  9.43900000E+00  0.038109
  5 P  2.00200000E+00  0.209480
  5 P  5.45600000E-01  0.508557

  6 P  1.51700000E-01  1.000000

  7 P  4.04100000E-02  1.000000

  8 D  5.50000000E-01  1.000000

  9 D  1.51000000E-01  1.000000

  O (Oxygen)
  ----------
            Exponent  Coefficients 
       -------------- ---------------------------------------------------------
  1 S  1.17200000E+04  0.000710
  1 S  1.75900000E+03  0.005470
  1 S  4.00800000E+02  0.027837
  1 S  1.13700000E+02  0.104800
  1 S  3.70300000E+01  0.283062
  1 S  1.32700000E+01  0.448719
  1 S  5.02500000E+00  0.270952
  1 S  1.01300000E+00  0.015458

  2 S  1.17200000E+04 -0.000160
  2 S  1.75900000E+03 -0.001263
  2 S  4.00800000E+02 -0.006267
  2 S  1.13700000E+02 -0.025716
  2 S  3.70300000E+01 -0.070924
  2 S  1.32700000E+01 -0.165411
  2 S  5.02500000E+00 -0.116955
  2 S  1.01300000E+00  0.557368

  3 S  3.02300000E-01  1.000000

  4 S  7.89600000E-02  1.000000

  5 P  1.77000000E+01  0.043018
  5 P  3.85400000E+00  0.228913
  5 P  1.04600000E+00  0.508728

  6 P  2.75300000E-01  1.000000

  7 P  6.85600000E-02  1.000000

  8 D  1.18500000E+00  1.000000

  9 D  3.32000000E-01  1.000000

  N (Nitrogen)
  ------------
            Exponent  Coefficients 
       -------------- ---------------------------------------------------------
  1 S  9.04600000E+03  0.000700
  1 S  1.35700000E+03  0.005389
  1 S  3.09300000E+02  0.027406
  1 S  8.77300000E+01  0.103207
  1 S  2.85600000E+01  0.278723
  1 S  1.02100000E+01  0.448540
  1 S  3.83800000E+00  0.278238
  1 S  7.46600000E-01  0.015440

  2 S  9.04600000E+03 -0.000153
  2 S  1.35700000E+03 -0.001208
  2 S  3.09300000E+02 -0.005992
  2 S  8.77300000E+01 -0.024544
  2 S  2.85600000E+01 -0.067459
  2 S  1.02100000E+01 -0.158078
  2 S  3.83800000E+00 -0.121831
  2 S  7.46600000E-01  0.549003

  3 S  2.24800000E-01  1.000000

  4 S  6.12400000E-02  1.000000

  5 P  1.35500000E+01  0.039919
  5 P  2.91700000E+00  0.217169
  5 P  7.97300000E-01  0.510319

  6 P  2.18500000E-01  1.000000

  7 P  5.61100000E-02  1.000000

  8 D  8.17000000E-01  1.000000

  9 D  2.30000000E-01  1.000000

  S (Sulphur)
  -----------
            Exponent  Coefficients 
       -------------- ---------------------------------------------------------
  1 S  1.10800000E+05  0.000248
  1 S  1.66100000E+04  0.001920
  1 S  3.78100000E+03  0.009962
  1 S  1.07100000E+03  0.040298
  1 S  3.49800000E+02  0.128604
  1 S  1.26300000E+02  0.303480
  1 S  4.92600000E+01  0.421432
  1 S  2.01600000E+01  0.230781
  1 S  5.72000000E+00  0.017897
  1 S  2.18200000E+00 -0.002975
  1 S  4.32700000E-01  0.000850

  2 S  1.10800000E+05 -0.000069
  2 S  1.66100000E+04 -0.000528
  2 S  3.78100000E+03 -0.002797
  2 S  1.07100000E+03 -0.011265
  2 S  3.49800000E+02 -0.038883
  2 S  1.26300000E+02 -0.099503
  2 S  4.92600000E+01 -0.199740
  2 S  2.01600000E+01 -0.123360
  2 S  5.72000000E+00  0.513194
  2 S  2.18200000E+00  0.607120
  2 S  4.32700000E-01  0.039675

  3 S  1.10800000E+05  0.000020
  3 S  1.66100000E+04  0.000153
  3 S  3.78100000E+03  0.000810
  3 S  1.07100000E+03  0.003290
  3 S  3.49800000E+02  0.011297
  3 S  1.26300000E+02  0.029639
  3 S  4.92600000E+01  0.059985
  3 S  2.01600000E+01  0.041325
  3 S  5.72000000E+00 -0.207474
  3 S  2.18200000E+00 -0.392889
  3 S  4.32700000E-01  0.632840

  4 S  1.57000000E-01  1.000000

  5 S  5.07000000E-02  1.000000

  6 P  3.99700000E+02  0.004475
  6 P  9.41900000E+01  0.034171
  6 P  2.97500000E+01  0.144250
  6 P  1.07700000E+01  0.353928
  6 P  4.11900000E+00  0.459085
  6 P  1.62500000E+00  0.206383
  6 P  4.72600000E-01  0.010214

  7 P  3.99700000E+02 -0.001163
  7 P  9.41900000E+01 -0.008657
  7 P  2.97500000E+01 -0.039089
  7 P  1.07700000E+01 -0.093463
  7 P  4.11900000E+00 -0.147994
  7 P  1.62500000E+00  0.030190
  7 P  4.72600000E-01  0.561573

  8 P  1.40700000E-01  1.000000

  9 P  3.99000000E-02  1.000000

 10 D  4.79000000E-01  1.000000

 11 D  1.52000000E-01  1.000000



 Summary of "ao basis" -> "ao basis" (cartesian)
 ------------------------------------------------------------------------------
       Tag                 Description            Shells   Functions and Types
 ---------------- ------------------------------  ------  ---------------------
 H                        aug-cc-pvdz                5        9   3s2p
 C                        aug-cc-pvdz                9       25   4s3p2d
 O                        aug-cc-pvdz                9       25   4s3p2d
 N                        aug-cc-pvdz                9       25   4s3p2d
 S                        aug-cc-pvdz               11       29   5s4p2d


                                 NWChem SCF Module
                                 -----------------



  ao basis        = "ao basis"
  functions       =   641
  atoms           =    37
  closed shells   =    77
  open shells     =     0
  charge          =   0.00
  wavefunction    = RHF 
  input vectors   = atomic
  output vectors  = ./GLN_CYS_4.movecs
  use symmetry    = F
  symmetry adapt  = F


 Summary of "ao basis" -> "ao basis" (cartesian)
 ------------------------------------------------------------------------------
       Tag                 Description            Shells   Functions and Types
 ---------------- ------------------------------  ------  ---------------------
 H                        aug-cc-pvdz                5        9   3s2p
 C                        aug-cc-pvdz                9       25   4s3p2d
 O                        aug-cc-pvdz                9       25   4s3p2d
 N                        aug-cc-pvdz                9       25   4s3p2d
 S                        aug-cc-pvdz               11       29   5s4p2d



 Forming initial guess at       1.1s


 !! The overlap matrix has   5 vectors deemed linearly dependent with
    eigenvalues:
 1.73D-06 4.68D-06 4.98D-06 5.47D-06 7.89D-06


      Superposition of Atomic Density Guess
      -------------------------------------

 Sum of atomic energies:       -1299.41518133

      Non-variational initial energy
      ------------------------------

 Total energy =   -1311.363980
 1-e energy   =   -5146.648367
 2-e energy   =    2140.780957
 HOMO         =      -0.285792
 LUMO         =       0.006623


 Starting SCF solution at     697.1s



 ----------------------------------------------
         Quadratically convergent ROHF

 Convergence threshold     :          1.000E-04
 Maximum no. of iterations :           30
 Final Fock-matrix accuracy:          1.000E-10
 ----------------------------------------------


              iter       energy          gnorm     gmax       time
             ----- ------------------- --------- --------- --------
                 1    -1303.7064753621  2.69D+00  1.32D-01   1465.0
                 2    -1304.0932385542  8.92D-01  4.04D-02   3005.6
                 3    -1304.1638589345  7.30D-02  4.24D-03   5161.3
                 4    -1304.1646674959  4.72D-03  4.24D-04   8007.6
                 5    -1304.1646715902  9.80D-06  5.85D-07  12932.1


       Final RHF  results 
       ------------------ 

         Total SCF energy =  -1304.164671590167
      One-electron energy =  -5159.247209195778
      Two-electron energy =   2160.579106865306
 Nuclear repulsion energy =   1694.503430740306

        Time for solution =  12237.9s


             Final eigenvalues
             -----------------

              1      
    1  -91.9596
    2  -20.5603
    3  -20.5415
    4  -20.5298
    5  -20.5186
    6  -15.6243
    7  -15.6088
    8  -15.6048
    9  -15.5842
   10  -11.3893
   11  -11.3753
   12  -11.3612
   13  -11.3563
   14  -11.3117
   15  -11.3056
   16  -11.2796
   17  -11.2752
   18  -11.2697
   19  -11.2463
   20   -8.9608
   21   -6.6431
   22   -6.6418
   23   -6.6396
   24   -1.4335
   25   -1.4029
   26   -1.3902
   27   -1.3820
   28   -1.2617
   29   -1.2574
   30   -1.2518
   31   -1.2100
   32   -1.1113
   33   -1.0805
   34   -1.0313
   35   -0.9901
   36   -0.9673
   37   -0.8978
   38   -0.8532
   39   -0.8315
   40   -0.8215
   41   -0.8036
   42   -0.7986
   43   -0.7672
   44   -0.7520
   45   -0.7204
   46   -0.7041
   47   -0.6967
   48   -0.6770
   49   -0.6666
   50   -0.6554
   51   -0.6432
   52   -0.6358
   53   -0.6341
   54   -0.6201
   55   -0.6163
   56   -0.5977
   57   -0.5907
   58   -0.5780
   59   -0.5731
   60   -0.5697
   61   -0.5664
   62   -0.5494
   63   -0.5429
   64   -0.5344
   65   -0.5316
   66   -0.5163
   67   -0.5063
   68   -0.4634
   69   -0.4572
   70   -0.4504
   71   -0.4410
   72   -0.4344
   73   -0.4276
   74   -0.4067
   75   -0.4036
   76   -0.3931
   77   -0.3583
   78    0.0219
   79    0.0341
   80    0.0350
   81    0.0399
   82    0.0466
   83    0.0519
   84    0.0552
   85    0.0605
   86    0.0629
   87    0.0665

                       ROHF Final Molecular Orbital Analysis
                       -------------------------------------

 Vector   24  Occ=2.000000D+00  E=-1.433453D+00
              MO Center= -2.6D+00,  5.6D-02, -1.0D+00, r^2= 8.6D-01
   Bfn.  Coefficient  Atom+Function         Bfn.  Coefficient  Atom+Function  
  ----- ------------  ---------------      ----- ------------  ---------------
   284      0.373135  18 O  s               283      0.353519  18 O  s         
   258      0.245894  17 C  s         

 Vector   25  Occ=2.000000D+00  E=-1.402867D+00
              MO Center=  8.2D-01, -2.4D-01,  1.1D+00, r^2= 2.8D+00
   Bfn.  Coefficient  Atom+Function         Bfn.  Coefficient  Atom+Function  
  ----- ------------  ---------------      ----- ------------  ---------------
   377      0.351012  23 O  s               376      0.324143  23 O  s         
   351      0.231235  22 C  s         

 Vector   26  Occ=2.000000D+00  E=-1.390230D+00
              MO Center=  5.6D-01, -3.2D+00, -2.7D-01, r^2= 3.3D+00
   Bfn.  Coefficient  Atom+Function         Bfn.  Coefficient  Atom+Function  
  ----- ------------  ---------------      ----- ------------  ---------------
    80      0.336054   6 O  s                79      0.332253   6 O  s         
    54      0.232465   5 C  s                12      0.176425   2 C  s         

 Vector   27  Occ=2.000000D+00  E=-1.382050D+00
              MO Center= -3.7D-01,  3.9D+00,  7.5D-01, r^2= 1.7D+00
   Bfn.  Coefficient  Atom+Function         Bfn.  Coefficient  Atom+Function  
  ----- ------------  ---------------      ----- ------------  ---------------
   576      0.370605  34 O  s               575      0.345961  34 O  s         
   550      0.244813  33 C  s         

 Vector   28  Occ=2.000000D+00  E=-1.261717D+00
              MO Center= -8.0D-01,  3.7D-01, -2.0D-01, r^2= 5.9D+00
   Bfn.  Coefficient  Atom+Function         Bfn.  Coefficient  Atom+Function  
  ----- ------------  ---------------      ----- ------------  ---------------
   402      0.293433  24 N  s               401      0.270761  24 N  s         
   309     -0.236405  19 N  s               308     -0.216625  19 N  s         
   377     -0.175474  23 O  s         

 Vector   29  Occ=2.000000D+00  E=-1.257439D+00
              MO Center= -1.6D+00, -5.4D-01, -5.9D-01, r^2= 6.1D+00
   Bfn.  Coefficient  Atom+Function         Bfn.  Coefficient  Atom+Function  
  ----- ------------  ---------------      ----- ------------  ---------------
   309      0.328722  19 N  s               308      0.282653  19 N  s         
   402      0.195625  24 N  s               284     -0.187749  18 O  s         
   401      0.185965  24 N  s               262     -0.165628  17 C  py        
   285     -0.154624  18 O  s               283     -0.152795  18 O  s         

 Vector   30  Occ=2.000000D+00  E=-1.251831D+00
              MO Center=  5.3D-01, -2.5D+00,  2.7D-01, r^2= 3.1D+00
   Bfn.  Coefficient  Atom+Function         Bfn.  Coefficient  Atom+Function  
  ----- ------------  ---------------      ----- ------------  ---------------
   105      0.434243   7 N  s               104      0.329612   7 N  s         
    80     -0.210681   6 O  s                79     -0.179167   6 O  s         

 Vector   31  Occ=2.000000D+00  E=-1.209958D+00
              MO Center= -1.3D+00,  3.1D+00,  3.7D-01, r^2= 1.9D+00
   Bfn.  Coefficient  Atom+Function         Bfn.  Coefficient  Atom+Function  
  ----- ------------  ---------------      ----- ------------  ---------------
   601      0.381473  35 N  s               600      0.365417  35 N  s         
   436     -0.277467  26 C  s               576     -0.201763  34 O  s         
   575     -0.170402  34 O  s               553     -0.160809  33 C  px        
   633      0.161056  37 H  s               624      0.157724  36 H  s         
   556      0.154709  33 C  px        

 Vector   32  Occ=2.000000D+00  E=-1.111291D+00
              MO Center= -9.9D-01, -1.2D+00,  5.8D-01, r^2= 5.1D+00
   Bfn.  Coefficient  Atom+Function         Bfn.  Coefficient  Atom+Function  
  ----- ------------  ---------------      ----- ------------  ---------------
   172      0.231528  11 C  s               215      0.211198  14 C  s         
   138      0.156961   9 C  s         

 Vector   33  Occ=2.000000D+00  E=-1.080453D+00
              MO Center=  9.0D-01,  1.8D+00, -3.6D-01, r^2= 5.4D+00
   Bfn.  Coefficient  Atom+Function         Bfn.  Coefficient  Atom+Function  
  ----- ------------  ---------------      ----- ------------  ---------------
   469      0.249615  28 C  s               513      0.191102  31 S  s         
   435      0.181176  26 C  s         

 Vector   34  Occ=2.000000D+00  E=-1.031257D+00
              MO Center=  4.1D-01, -2.4D+00,  3.1D-01, r^2= 8.5D+00
   Bfn.  Coefficient  Atom+Function         Bfn.  Coefficient  Atom+Function  
  ----- ------------  ---------------      ----- ------------  ---------------
    11      0.233808   2 C  s                56     -0.223056   5 C  s         
    12      0.195133   2 C  s               216      0.192513  14 C  s         
   215      0.177426  14 C  s               138     -0.168419   9 C  s         

 Vector   35  Occ=2.000000D+00  E=-9.901169D-01
              MO Center=  1.3D+00, -6.1D-01, -9.3D-02, r^2= 1.2D+01
   Bfn.  Coefficient  Atom+Function         Bfn.  Coefficient  Atom+Function  
  ----- ------------  ---------------      ----- ------------  ---------------
   513      0.223970  31 S  s                11      0.212877   2 C  s         
    13      0.190905   2 C  s                56     -0.190746   5 C  s         
   441      0.155807  26 C  px              216     -0.151294  14 C  s         
   435     -0.151579  26 C  s         

 Vector   36  Occ=2.000000D+00  E=-9.672649D-01
              MO Center=  5.1D-01, -2.9D-01,  4.5D-02, r^2= 1.2D+01
   Bfn.  Coefficient  Atom+Function         Bfn.  Coefficient  Atom+Function  
  ----- ------------  ---------------      ----- ------------  ---------------
   216      0.305590  14 C  s               513      0.204394  31 S  s         
   435     -0.161895  26 C  s                11     -0.157986   2 C  s         

 Vector   37  Occ=2.000000D+00  E=-8.978046D-01
              MO Center= -9.9D-01, -1.1D+00,  3.1D-01, r^2= 6.5D+00
   Bfn.  Coefficient  Atom+Function         Bfn.  Coefficient  Atom+Function  
  ----- ------------  ---------------      ----- ------------  ---------------
   216      0.302200  14 C  s               172     -0.234865  11 C  s         
   144      0.183608   9 C  px              223     -0.176564  14 C  pz        
   145      0.156569   9 C  py        

 Vector   38  Occ=2.000000D+00  E=-8.532444D-01
              MO Center=  1.1D+00,  2.2D+00, -7.1D-01, r^2= 6.7D+00
   Bfn.  Coefficient  Atom+Function         Bfn.  Coefficient  Atom+Function  
  ----- ------------  ---------------      ----- ------------  ---------------
   514      0.283606  31 S  s               513      0.248813  31 S  s         
   436      0.235810  26 C  s               469     -0.232544  28 C  s         
   441     -0.193050  26 C  px              470     -0.172781  28 C  s         
   493     -0.156438  29 H  s               502     -0.151547  30 H  s         
   556     -0.150816  33 C  px        

 Vector   39  Occ=2.000000D+00  E=-8.315257D-01
              MO Center= -2.2D+00, -1.0D+00, -6.1D-01, r^2= 5.7D+00
   Bfn.  Coefficient  Atom+Function         Bfn.  Coefficient  Atom+Function  
  ----- ------------  ---------------      ----- ------------  ---------------
   312      0.264260  19 N  py              332     -0.205563  20 H  s         
   258      0.185434  17 C  s               313      0.170674  19 N  pz        
   216     -0.156669  14 C  s               259      0.151814  17 C  s         

 Vector   40  Occ=2.000000D+00  E=-8.214905D-01
              MO Center=  1.7D-01,  1.7D-01,  2.8D-01, r^2= 6.8D+00
   Bfn.  Coefficient  Atom+Function         Bfn.  Coefficient  Atom+Function  
  ----- ------------  ---------------      ----- ------------  ---------------
   352      0.244895  22 C  s               406      0.215226  24 N  pz        
   425     -0.215903  25 H  s               351      0.188753  22 C  s         
   402     -0.173510  24 N  s               405     -0.170290  24 N  py        
   436      0.169436  26 C  s               426     -0.166894  25 H  s         
   108     -0.154634   7 N  py              377     -0.154757  23 O  s         

 Vector   41  Occ=2.000000D+00  E=-8.035865D-01
              MO Center=  1.4D-01, -1.7D-01,  2.9D-01, r^2= 8.7D+00
   Bfn.  Coefficient  Atom+Function         Bfn.  Coefficient  Atom+Function  
  ----- ------------  ---------------      ----- ------------  ---------------
   163     -0.250716  10 H  s               105      0.229887   7 N  s         
   352      0.218996  22 C  s               128      0.192414   8 H  s         
   403      0.180947  24 N  s               425     -0.177237  25 H  s         
   144     -0.170190   9 C  px              109      0.169219   7 N  pz        
   603     -0.158329  35 N  px              108      0.151069   7 N  py        

 Vector   42  Occ=2.000000D+00  E=-7.985686D-01
              MO Center= -2.9D-01,  5.3D-01,  2.4D-01, r^2= 1.0D+01
   Bfn.  Coefficient  Atom+Function         Bfn.  Coefficient  Atom+Function  
  ----- ------------  ---------------      ----- ------------  ---------------
   603      0.217406  35 N  px              105      0.200146   7 N  s         
   128      0.190527   8 H  s               442      0.173465  26 C  py        
   109      0.158811   7 N  pz               55     -0.151214   5 C  s         

 Vector   43  Occ=2.000000D+00  E=-7.671741D-01
              MO Center= -2.5D+00, -1.2D+00, -9.4D-01, r^2= 4.3D+00
   Bfn.  Coefficient  Atom+Function         Bfn.  Coefficient  Atom+Function  
  ----- ------------  ---------------      ----- ------------  ---------------
   313      0.297287  19 N  pz              341     -0.288716  21 H  s         
   216     -0.269481  14 C  s               332      0.266485  20 H  s         
   312     -0.242571  19 N  py              342     -0.170300  21 H  s         

 Vector   44  Occ=2.000000D+00  E=-7.519579D-01
              MO Center= -6.9D-01,  1.2D+00,  2.3D-01, r^2= 9.1D+00
   Bfn.  Coefficient  Atom+Function         Bfn.  Coefficient  Atom+Function  
  ----- ------------  ---------------      ----- ------------  ---------------
   604      0.251729  35 N  py              633     -0.248670  37 H  s         
   553     -0.198816  33 C  px              552     -0.188247  33 C  s         
   551      0.177476  33 C  s               634     -0.167056  37 H  s         
   442     -0.150437  26 C  py        

 Vector   45  Occ=2.000000D+00  E=-7.203620D-01
              MO Center= -2.6D-01, -1.3D-03,  2.6D-01, r^2= 1.2D+01
   Bfn.  Coefficient  Atom+Function         Bfn.  Coefficient  Atom+Function  
  ----- ------------  ---------------      ----- ------------  ---------------
   604      0.223707  35 N  py              624      0.187531  36 H  s         
   355     -0.185376  22 C  py              633     -0.171620  37 H  s         
   142      0.162885   9 C  py              625      0.152813  36 H  s         

 Vector   46  Occ=2.000000D+00  E=-7.041123D-01
              MO Center= -1.8D+00, -3.8D-01, -2.2D-01, r^2= 6.0D+00
   Bfn.  Coefficient  Atom+Function         Bfn.  Coefficient  Atom+Function  
  ----- ------------  ---------------      ----- ------------  ---------------
   284      0.219088  18 O  s               288     -0.213325  18 O  pz        
   287      0.188058  18 O  py              262     -0.182448  17 C  py        
   239      0.177242  15 H  s               313      0.155656  19 N  pz        

 Vector   47  Occ=2.000000D+00  E=-6.967453D-01
              MO Center= -1.3D-01,  3.0D-01,  3.3D-01, r^2= 9.5D+00
   Bfn.  Coefficient  Atom+Function         Bfn.  Coefficient  Atom+Function  
  ----- ------------  ---------------      ----- ------------  ---------------
   403      0.185786  24 N  s               405      0.157310  24 N  py        

 Vector   48  Occ=2.000000D+00  E=-6.769914D-01
              MO Center= -3.1D-01,  2.6D-01,  2.7D-01, r^2= 1.1D+01
   Bfn.  Coefficient  Atom+Function         Bfn.  Coefficient  Atom+Function  
  ----- ------------  ---------------      ----- ------------  ---------------
   107      0.180768   7 N  px               56      0.169175   5 C  s         
   553     -0.162094  33 C  px              624     -0.161902  36 H  s         
   603      0.156745  35 N  px              552     -0.155919  33 C  s         
   162      0.152391  10 H  s         

 Vector   49  Occ=2.000000D+00  E=-6.666082D-01
              MO Center=  8.7D-01, -2.6D+00,  1.8D-01, r^2= 7.2D+00
   Bfn.  Coefficient  Atom+Function         Bfn.  Coefficient  Atom+Function  
  ----- ------------  ---------------      ----- ------------  ---------------
    58      0.242109   5 C  py               82     -0.236702   6 O  px        
    13      0.216484   2 C  s                56     -0.215227   5 C  s         
    80      0.204239   6 O  s                14      0.158871   2 C  px        
    84     -0.155666   6 O  pz              108     -0.153469   7 N  py        
    17      0.150305   2 C  px        

 Vector   50  Occ=2.000000D+00  E=-6.554267D-01
              MO Center= -1.0D+00, -5.1D-01,  4.7D-01, r^2= 6.9D+00
   Bfn.  Coefficient  Atom+Function         Bfn.  Coefficient  Atom+Function  
  ----- ------------  ---------------      ----- ------------  ---------------
   196      0.194363  12 H  s               176     -0.176417  11 C  py        
   173      0.161164  11 C  s               248     -0.159727  16 H  s         
   148     -0.151352   9 C  py        

 Vector   51  Occ=2.000000D+00  E=-6.431705D-01
              MO Center= -5.0D-01,  5.7D-01,  2.3D-01, r^2= 9.6D+00
   Bfn.  Coefficient  Atom+Function         Bfn.  Coefficient  Atom+Function  
  ----- ------------  ---------------      ----- ------------  ---------------
   173      0.222317  11 C  s               381      0.155765  23 O  pz        
    13      0.153555   2 C  s               356     -0.152715  22 C  pz        

 Vector   52  Occ=2.000000D+00  E=-6.357744D-01
              MO Center=  1.1D-01, -3.9D-01, -1.1D-01, r^2= 1.2D+01
   Bfn.  Coefficient  Atom+Function         Bfn.  Coefficient  Atom+Function  
  ----- ------------  ---------------      ----- ------------  ---------------
   436      0.200647  26 C  s               471     -0.196790  28 C  s         
   470     -0.190450  28 C  s               173     -0.180310  11 C  s         
   438      0.163383  26 C  px              197      0.154734  12 H  s         
   474      0.154936  28 C  pz        

 Vector   53  Occ=2.000000D+00  E=-6.340563D-01
              MO Center= -6.3D-01, -1.3D+00, -1.4D-01, r^2= 1.0D+01
   Bfn.  Coefficient  Atom+Function         Bfn.  Coefficient  Atom+Function  
  ----- ------------  ---------------      ----- ------------  ---------------
    56      0.232103   5 C  s               286     -0.193059  18 O  px        
   261     -0.179855  17 C  px              311     -0.159591  19 N  px        
    59      0.157978   5 C  pz        

 Vector   54  Occ=2.000000D+00  E=-6.200756D-01
              MO Center=  2.9D-01,  1.8D+00,  1.7D-01, r^2= 9.1D+00
   Bfn.  Coefficient  Atom+Function         Bfn.  Coefficient  Atom+Function  
  ----- ------------  ---------------      ----- ------------  ---------------
   436      0.198956  26 C  s               502     -0.196829  30 H  s         
   473     -0.181271  28 C  py              411     -0.169415  24 N  py        
   579     -0.164693  34 O  py              404      0.157375  24 N  px        
   426     -0.152524  25 H  s         

 Vector   55  Occ=2.000000D+00  E=-6.162999D-01
              MO Center= -4.1D-01, -1.3D+00, -6.2D-02, r^2= 1.4D+01
   Bfn.  Coefficient  Atom+Function         Bfn.  Coefficient  Atom+Function  
  ----- ------------  ---------------      ----- ------------  ---------------
   287      0.222712  18 O  py               35      0.164757   3 H  s         
   263      0.162290  17 C  pz               44     -0.154007   4 H  s         

 Vector   56  Occ=2.000000D+00  E=-5.976582D-01
              MO Center=  1.3D-01,  1.0D-01,  2.2D-01, r^2= 1.4D+01
   Bfn.  Coefficient  Atom+Function         Bfn.  Coefficient  Atom+Function  
  ----- ------------  ---------------      ----- ------------  ---------------
   579      0.218025  34 O  py              381      0.175172  23 O  pz        
    57     -0.160336   5 C  px        

 Vector   57  Occ=2.000000D+00  E=-5.907363D-01
              MO Center=  2.2D-01,  1.8D+00,  2.0D-01, r^2= 1.1D+01
   Bfn.  Coefficient  Atom+Function         Bfn.  Coefficient  Atom+Function  
  ----- ------------  ---------------      ----- ------------  ---------------
   555      0.232006  33 C  pz              579     -0.220570  34 O  py        
   474     -0.172057  28 C  pz              442     -0.157337  26 C  py        

 Vector   58  Occ=2.000000D+00  E=-5.780102D-01
              MO Center=  1.6D-01, -4.3D-01, -1.2D-01, r^2= 1.4D+01
   Bfn.  Coefficient  Atom+Function         Bfn.  Coefficient  Atom+Function  
  ----- ------------  ---------------      ----- ------------  ---------------
    84     -0.171378   6 O  pz               57      0.159663   5 C  px        

 Vector   59  Occ=2.000000D+00  E=-5.730978D-01
              MO Center=  1.0D-02, -4.4D-01,  3.7D-01, r^2= 1.1D+01
   Bfn.  Coefficient  Atom+Function         Bfn.  Coefficient  Atom+Function  
  ----- ------------  ---------------      ----- ------------  ---------------
   173      0.256727  11 C  s               249      0.233864  16 H  s         
   240     -0.188013  15 H  s               239     -0.163940  15 H  s         
   177      0.153523  11 C  pz              205      0.154149  13 H  s         
   287      0.153861  18 O  py        

 Vector   60  Occ=2.000000D+00  E=-5.697156D-01
              MO Center=  2.4D-02, -3.2D-01,  1.8D-01, r^2= 1.4D+01
   Bfn.  Coefficient  Atom+Function         Bfn.  Coefficient  Atom+Function  
  ----- ------------  ---------------      ----- ------------  ---------------
     1      0.184760   1 H  s                15     -0.177201   2 C  py        

 Vector   61  Occ=2.000000D+00  E=-5.663560D-01
              MO Center=  1.2D+00, -2.8D+00,  2.6D-01, r^2= 1.2D+01
   Bfn.  Coefficient  Atom+Function         Bfn.  Coefficient  Atom+Function  
  ----- ------------  ---------------      ----- ------------  ---------------
     1      0.288818   1 H  s                 2      0.262067   1 H  s         
    15     -0.261262   2 C  py               35     -0.188580   3 H  s         
    13     -0.185497   2 C  s                16     -0.152489   2 C  pz        

 Vector   62  Occ=2.000000D+00  E=-5.493744D-01
              MO Center=  6.6D-01, -1.0D+00,  5.2D-01, r^2= 9.6D+00
   Bfn.  Coefficient  Atom+Function         Bfn.  Coefficient  Atom+Function  
  ----- ------------  ---------------      ----- ------------  ---------------
   216     -0.229158  14 C  s               163      0.227752  10 H  s         
   379     -0.195793  23 O  px              197     -0.178317  12 H  s         
    44      0.158813   4 H  s                16      0.157493   2 C  pz        

 Vector   63  Occ=2.000000D+00  E=-5.428609D-01
              MO Center=  3.5D-01,  1.5D-01,  4.8D-02, r^2= 1.2D+01
   Bfn.  Coefficient  Atom+Function         Bfn.  Coefficient  Atom+Function  
  ----- ------------  ---------------      ----- ------------  ---------------
   471      0.268960  28 C  s               218     -0.163851  14 C  px        
   540      0.158664  32 H  s         

 Vector   64  Occ=2.000000D+00  E=-5.344282D-01
              MO Center= -4.0D-02,  1.9D-01,  1.4D-01, r^2= 1.1D+01
   Bfn.  Coefficient  Atom+Function         Bfn.  Coefficient  Atom+Function  
  ----- ------------  ---------------      ----- ------------  ---------------
   176      0.184688  11 C  py              438      0.174363  26 C  px        
   219     -0.168261  14 C  py              459      0.164869  27 H  s         
   471      0.157357  28 C  s         

 Vector   65  Occ=2.000000D+00  E=-5.316054D-01
              MO Center= -1.2D+00, -1.0D+00,  9.0D-01, r^2= 5.9D+00
   Bfn.  Coefficient  Atom+Function         Bfn.  Coefficient  Atom+Function  
  ----- ------------  ---------------      ----- ------------  ---------------
   206     -0.292169  13 H  s               196      0.271055  12 H  s         
   197      0.235204  12 H  s               249      0.222184  16 H  s         
   248      0.219320  16 H  s               176     -0.212238  11 C  py        
   163     -0.202735  10 H  s               240     -0.198425  15 H  s         
   219      0.182129  14 C  py              148     -0.153722   9 C  py        

 Vector   66  Occ=2.000000D+00  E=-5.162653D-01
              MO Center=  6.0D-01,  2.2D+00, -1.4D-02, r^2= 7.4D+00
   Bfn.  Coefficient  Atom+Function         Bfn.  Coefficient  Atom+Function  
  ----- ------------  ---------------      ----- ------------  ---------------
   440      0.281780  26 C  pz              460      0.268722  27 H  s         
   474     -0.228847  28 C  pz              410     -0.202982  24 N  px        
   541     -0.190944  32 H  s               605     -0.186011  35 N  pz        
   459      0.179977  27 H  s               580     -0.174586  34 O  pz        
   411     -0.164460  24 N  py              475      0.159252  28 C  px        

 Vector   67  Occ=2.000000D+00  E=-5.063482D-01
              MO Center=  1.6D-01, -2.4D+00,  1.3D-01, r^2= 7.5D+00
   Bfn.  Coefficient  Atom+Function         Bfn.  Coefficient  Atom+Function  
  ----- ------------  ---------------      ----- ------------  ---------------
    84      0.210852   6 O  pz              175     -0.177617  11 C  px        
    83     -0.165432   6 O  py               82     -0.161689   6 O  px        
   144      0.160399   9 C  px              197     -0.159711  12 H  s         
   143     -0.158849   9 C  pz               87      0.155354   6 O  pz        
   460     -0.154553  27 H  s                45     -0.153612   4 H  s         

 Vector   68  Occ=2.000000D+00  E=-4.633557D-01
              MO Center=  1.6D-01,  1.0D+00, -5.1D-01, r^2= 9.9D+00
   Bfn.  Coefficient  Atom+Function         Bfn.  Coefficient  Atom+Function  
  ----- ------------  ---------------      ----- ------------  ---------------
   288      0.290544  18 O  pz              216      0.273400  14 C  s         
   514      0.266738  31 S  s               520     -0.237415  31 S  py        
   291      0.228859  18 O  pz              173     -0.220767  11 C  s         
   266     -0.193763  17 C  pz              259     -0.183881  17 C  s         
   578     -0.167641  34 O  px              403     -0.160375  24 N  s         

 Vector   69  Occ=2.000000D+00  E=-4.572258D-01
              MO Center=  2.1D-01,  9.2D-01, -8.1D-01, r^2= 9.7D+00
   Bfn.  Coefficient  Atom+Function         Bfn.  Coefficient  Atom+Function  
  ----- ------------  ---------------      ----- ------------  ---------------
   288      0.318324  18 O  pz              216      0.281499  14 C  s         
   471     -0.277625  28 C  s               520      0.272652  31 S  py        
   514     -0.263915  31 S  s               291      0.251599  18 O  pz        
   259     -0.193502  17 C  s               523      0.188343  31 S  py        
   266     -0.185512  17 C  pz              473     -0.162932  28 C  py        

 Vector   70  Occ=2.000000D+00  E=-4.504041D-01
              MO Center= -2.5D+00, -5.4D-01, -1.1D+00, r^2= 3.4D+00
   Bfn.  Coefficient  Atom+Function         Bfn.  Coefficient  Atom+Function  
  ----- ------------  ---------------      ----- ------------  ---------------
   311      0.416110  19 N  px              314      0.368701  19 N  px        
   286     -0.315251  18 O  px              216      0.280545  14 C  s         
   289     -0.257200  18 O  px              310     -0.215361  19 N  s         
   288      0.197347  18 O  pz              291      0.153676  18 O  pz        

 Vector   71  Occ=2.000000D+00  E=-4.409836D-01
              MO Center=  2.8D-01,  3.6D-01,  7.9D-01, r^2= 7.1D+00
   Bfn.  Coefficient  Atom+Function         Bfn.  Coefficient  Atom+Function  
  ----- ------------  ---------------      ----- ------------  ---------------
   380      0.408943  23 O  py              383      0.333270  23 O  py        
   260      0.298211  17 C  s               310     -0.232147  19 N  s         
   460     -0.213649  27 H  s               578     -0.191940  34 O  px        

 Vector   72  Occ=2.000000D+00  E=-4.343563D-01
              MO Center=  3.1D-01,  1.5D+00,  7.8D-01, r^2= 7.6D+00
   Bfn.  Coefficient  Atom+Function         Bfn.  Coefficient  Atom+Function  
  ----- ------------  ---------------      ----- ------------  ---------------
   578      0.331091  34 O  px              380      0.284588  23 O  py        
   581      0.262751  34 O  px              383      0.231820  23 O  py        
   460      0.177112  27 H  s               406     -0.166354  24 N  pz        
   404      0.164575  24 N  px        

 Vector   73  Occ=2.000000D+00  E=-4.275987D-01
              MO Center=  6.0D-01, -3.8D+00, -4.7D-01, r^2= 2.8D+00
   Bfn.  Coefficient  Atom+Function         Bfn.  Coefficient  Atom+Function  
  ----- ------------  ---------------      ----- ------------  ---------------
    13      0.491755   2 C  s                83     -0.452558   6 O  py        
    86     -0.365503   6 O  py               82      0.304923   6 O  px        
    56     -0.286607   5 C  s                64      0.245328   5 C  py        
    85      0.238060   6 O  px              105      0.238185   7 N  s         
    17      0.224680   2 C  px               63     -0.186078   5 C  px        

 Vector   74  Occ=2.000000D+00  E=-4.066973D-01
              MO Center= -1.7D-01,  1.1D+00,  4.5D-01, r^2= 1.2D+01
   Bfn.  Coefficient  Atom+Function         Bfn.  Coefficient  Atom+Function  
  ----- ------------  ---------------      ----- ------------  ---------------
   605      0.273636  35 N  pz              580     -0.238144  34 O  pz        
   608      0.230218  35 N  pz              403      0.207909  24 N  s         
   578      0.200132  34 O  px              109     -0.186637   7 N  pz        
   583     -0.184339  34 O  pz              112     -0.169046   7 N  pz        
   581      0.158712  34 O  px              107      0.153678   7 N  px        

 Vector   75  Occ=2.000000D+00  E=-4.036002D-01
              MO Center= -2.7D-01,  6.3D-01,  4.0D-01, r^2= 1.3D+01
   Bfn.  Coefficient  Atom+Function         Bfn.  Coefficient  Atom+Function  
  ----- ------------  ---------------      ----- ------------  ---------------
   605     -0.292208  35 N  pz              580      0.278974  34 O  pz        
   608     -0.249920  35 N  pz              583      0.216000  34 O  pz        
   109     -0.212450   7 N  pz              403     -0.201748  24 N  s         
   112     -0.190340   7 N  pz              107      0.179583   7 N  px        
   552      0.166535  33 C  s               110      0.164421   7 N  px        

 Vector   76  Occ=2.000000D+00  E=-3.931464D-01
              MO Center=  2.5D-01,  1.5D+00,  4.7D-01, r^2= 8.3D+00
   Bfn.  Coefficient  Atom+Function         Bfn.  Coefficient  Atom+Function  
  ----- ------------  ---------------      ----- ------------  ---------------
   578      0.265685  34 O  px              404     -0.239762  24 N  px        
   407     -0.227473  24 N  px              581      0.210827  34 O  px        
   379      0.180834  23 O  px              411      0.181228  24 N  py        
   409      0.178637  24 N  pz              406      0.175509  24 N  pz        
   556     -0.172972  33 C  px              551     -0.171688  33 C  s         

 Vector   77  Occ=2.000000D+00  E=-3.583026D-01
              MO Center=  2.7D+00,  1.7D+00, -1.1D+00, r^2= 2.4D+00
   Bfn.  Coefficient  Atom+Function         Bfn.  Coefficient  Atom+Function  
  ----- ------------  ---------------      ----- ------------  ---------------
   521      0.363989  31 S  pz              524      0.359794  31 S  pz        
   519      0.284715  31 S  px              494      0.263607  29 H  s         
   522      0.264013  31 S  px              520      0.248493  31 S  py        
   523      0.240594  31 S  py              503     -0.152154  30 H  s         

 Vector   78  Occ=0.000000D+00  E= 2.188343D-02
              MO Center= -4.2D+00, -2.3D+00, -1.2D-04, r^2= 2.0D+01
   Bfn.  Coefficient  Atom+Function         Bfn.  Coefficient  Atom+Function  
  ----- ------------  ---------------      ----- ------------  ---------------
   260      4.254216  17 C  s               241     -3.367016  15 H  s         
    13      3.055322   2 C  s               310     -2.858295  19 N  s         
   224     -2.194908  14 C  px              268     -1.601145  17 C  py        
   269     -1.591533  17 C  pz              353      1.424667  22 C  s         
    64      1.401317   5 C  py              361     -1.405012  22 C  py        

 Vector   79  Occ=0.000000D+00  E= 3.408372D-02
              MO Center= -7.3D-01, -2.9D+00,  1.6D-01, r^2= 3.6D+01
   Bfn.  Coefficient  Atom+Function         Bfn.  Coefficient  Atom+Function  
  ----- ------------  ---------------      ----- ------------  ---------------
    64     -2.560039   5 C  py               63      2.332208   5 C  px        
   269      2.227672  17 C  pz              207     -2.106483  13 H  s         
    46     -2.072482   4 H  s               343      1.992204  21 H  s         
   226      1.943563  14 C  pz              181      1.901115  11 C  px        
   182     -1.775129  11 C  py               56      1.748595   5 C  s         

 Vector   80  Occ=0.000000D+00  E= 3.497054D-02
              MO Center=  1.3D+00, -2.3D+00, -6.3D-01, r^2= 4.1D+01
   Bfn.  Coefficient  Atom+Function         Bfn.  Coefficient  Atom+Function  
  ----- ------------  ---------------      ----- ------------  ---------------
   217      5.400100  14 C  s               147      4.108778   9 C  px        
   148     -4.082640   9 C  py              552      3.568587  33 C  s         
    64     -3.190622   5 C  py              241      3.120453  15 H  s         
   361      2.836362  22 C  py              224      2.519892  14 C  px        
   471     -2.461704  28 C  s                63      2.394527   5 C  px        

 Vector   81  Occ=0.000000D+00  E= 3.993336D-02
              MO Center= -1.4D+00,  1.3D+00, -9.7D-01, r^2= 4.0D+01
   Bfn.  Coefficient  Atom+Function         Bfn.  Coefficient  Atom+Function  
  ----- ------------  ---------------      ----- ------------  ---------------
   552      3.944285  33 C  s               602     -3.089389  35 N  s         
   427      2.895200  25 H  s               445      2.770536  26 C  py        
   310      2.642209  19 N  s               471     -2.624610  28 C  s         
   361      2.321981  22 C  py              269      2.225624  17 C  pz        
   437      2.221428  26 C  s               559     -2.054355  33 C  px        

 Vector   82  Occ=0.000000D+00  E= 4.656089D-02
              MO Center= -3.2D-02,  1.2D+00, -9.9D-01, r^2= 4.7D+01
   Bfn.  Coefficient  Atom+Function         Bfn.  Coefficient  Atom+Function  
  ----- ------------  ---------------      ----- ------------  ---------------
   552      3.749552  33 C  s               471     -2.991247  28 C  s         
   403     -2.924126  24 N  s               559      2.646459  33 C  px        
   542     -2.587215  32 H  s               446     -2.394166  26 C  pz        
    64      2.349399   5 C  py               63     -2.120976   5 C  px        
   148      2.102819   9 C  py              626      2.000572  36 H  s         

 Vector   83  Occ=0.000000D+00  E= 5.192990D-02
              MO Center=  3.0D-01, -2.9D+00,  5.9D-01, r^2= 3.8D+01
   Bfn.  Coefficient  Atom+Function         Bfn.  Coefficient  Atom+Function  
  ----- ------------  ---------------      ----- ------------  ---------------
   207      3.320765  13 H  s                56     -2.845659   5 C  s         
   241     -2.336431  15 H  s                 3     -2.147225   1 H  s         
    37     -2.064349   3 H  s                46      2.062080   4 H  s         
   106      2.018833   7 N  s               495      2.011512  29 H  s         
   427     -1.930730  25 H  s               183     -1.915521  11 C  pz        

 Vector   84  Occ=0.000000D+00  E= 5.518884D-02
              MO Center=  5.7D-01, -1.7D+00,  3.0D-02, r^2= 4.4D+01
   Bfn.  Coefficient  Atom+Function         Bfn.  Coefficient  Atom+Function  
  ----- ------------  ---------------      ----- ------------  ---------------
   198      4.329852  12 H  s                 3      2.915880   1 H  s         
    37     -2.702361   3 H  s               182      2.627824  11 C  py        
   403      2.208913  24 N  s               148     -2.195544   9 C  py        
   495      2.098775  29 H  s               106     -2.032266   7 N  s         
   269     -1.990586  17 C  pz              461     -1.984546  27 H  s         

 Vector   85  Occ=0.000000D+00  E= 6.047722D-02
              MO Center= -8.7D-01, -7.2D-01, -1.8D-01, r^2= 4.5D+01
   Bfn.  Coefficient  Atom+Function         Bfn.  Coefficient  Atom+Function  
  ----- ------------  ---------------      ----- ------------  ---------------
   334     -3.425649  20 H  s               164      3.286292  10 H  s         
   149      2.984139   9 C  pz              241      2.855240  15 H  s         
   174     -2.752226  11 C  s                 3      2.689846   1 H  s         
   495      2.574281  29 H  s                13      2.533053   2 C  s         
    64      2.236942   5 C  py              504     -2.003346  30 H  s         

 Vector   86  Occ=0.000000D+00  E= 6.288701D-02
              MO Center= -8.2D-01, -1.4D+00,  1.4D+00, r^2= 4.0D+01
   Bfn.  Coefficient  Atom+Function         Bfn.  Coefficient  Atom+Function  
  ----- ------------  ---------------      ----- ------------  ---------------
   250      5.065952  16 H  s               241     -4.523130  15 H  s         
   260      4.230408  17 C  s               217     -4.088551  14 C  s         
   174     -3.761522  11 C  s               225     -3.750531  14 C  py        
   635     -3.629790  37 H  s               552     -3.051919  33 C  s         
     3      3.027500   1 H  s                46     -2.967878   4 H  s         

 Vector   87  Occ=0.000000D+00  E= 6.653232D-02
              MO Center=  7.6D-01, -1.1D+00, -3.6D-01, r^2= 4.6D+01
   Bfn.  Coefficient  Atom+Function         Bfn.  Coefficient  Atom+Function  
  ----- ------------  ---------------      ----- ------------  ---------------
    56      6.312426   5 C  s               361     -5.687869  22 C  py        
   198     -5.071665  12 H  s               106     -4.108432   7 N  s         
   148      2.991246   9 C  py              504      3.005315  30 H  s         
   164     -2.640153  10 H  s               495     -2.643163  29 H  s         
    37     -2.485526   3 H  s                46      2.368709   4 H  s         

 Vector   88  Occ=0.000000D+00  E= 7.170066D-02
              MO Center=  2.0D+00,  2.3D+00, -1.3D+00, r^2= 3.6D+01
   Bfn.  Coefficient  Atom+Function         Bfn.  Coefficient  Atom+Function  
  ----- ------------  ---------------      ----- ------------  ---------------
   427     -4.666053  25 H  s                56      4.301961   5 C  s         
   495      4.107812  29 H  s                13     -3.760047   2 C  s         
   471     -3.624452  28 C  s               542     -3.452981  32 H  s         
   217      3.250924  14 C  s               148      3.048180   9 C  py        
   411      2.891477  24 N  py              260      2.568547  17 C  s         

 Vector   89  Occ=0.000000D+00  E= 7.584574D-02
              MO Center= -6.2D-01,  9.6D-02, -4.7D-01, r^2= 4.4D+01
   Bfn.  Coefficient  Atom+Function         Bfn.  Coefficient  Atom+Function  
  ----- ------------  ---------------      ----- ------------  ---------------
   250      5.965901  16 H  s               198     -4.657308  12 H  s         
   504     -4.516525  30 H  s               635     -4.267677  37 H  s         
   334      4.124727  20 H  s               495      4.044892  29 H  s         
[...]
   183      5.215880  11 C  pz              174     -4.800248  11 C  s         
   411     -4.695034  24 N  py              602     -4.466076  35 N  s         
   163      4.241457  10 H  s                46      4.100217   4 H  s         

 Vector  188  Occ=0.000000D+00  E= 4.413122D-01
              MO Center= -5.9D-01,  5.7D-01,  2.2D-01, r^2= 2.1D+01
   Bfn.  Coefficient  Atom+Function         Bfn.  Coefficient  Atom+Function  
  ----- ------------  ---------------      ----- ------------  ---------------
    13     19.510461   2 C  s               361     12.796213  22 C  py        
    56    -11.021162   5 C  s                63     -9.623897   5 C  px        
    64      7.962457   5 C  py              403     -7.972320  24 N  s         
   471     -6.658366  28 C  s               148     -6.171653   9 C  py        
   445      5.273398  26 C  py              174      4.789934  11 C  s         

 Vector  189  Occ=0.000000D+00  E= 4.448160D-01
              MO Center=  5.9D-01, -8.5D-01,  3.2D-01, r^2= 2.3D+01
   Bfn.  Coefficient  Atom+Function         Bfn.  Coefficient  Atom+Function  
  ----- ------------  ---------------      ----- ------------  ---------------
   552     24.683183  33 C  s               148    -18.129901   9 C  py        
   310    -16.375517  19 N  s               260     11.387354  17 C  s         
   471    -10.730243  28 C  s               114      9.323622   7 N  py        
   149     -8.817003   9 C  pz              403      8.814464  24 N  s         
   353     -8.424674  22 C  s               446     -8.122206  26 C  pz        

 Vector  190  Occ=0.000000D+00  E= 4.487214D-01
              MO Center= -3.5D-01,  1.5D-01, -2.8D-01, r^2= 2.1D+01
   Bfn.  Coefficient  Atom+Function         Bfn.  Coefficient  Atom+Function  
  ----- ------------  ---------------      ----- ------------  ---------------
   260     13.173931  17 C  s                56    -11.897810   5 C  s         
   148    -10.582700   9 C  py              403      8.735796  24 N  s         
   217      8.672525  14 C  s               147      7.092572   9 C  px        
   471     -6.470647  28 C  s               361      6.383530  22 C  py        
    13      6.079074   2 C  s               310     -5.294019  19 N  s         

 Vector  191  Occ=0.000000D+00  E= 4.518935D-01
              MO Center= -2.2D-01, -8.1D-01, -7.9D-03, r^2= 1.9D+01
   Bfn.  Coefficient  Atom+Function         Bfn.  Coefficient  Atom+Function  
  ----- ------------  ---------------      ----- ------------  ---------------
   403     16.906613  24 N  s               310    -13.094369  19 N  s         
   471    -12.864912  28 C  s                56    -12.653795   5 C  s         
   260     11.376153  17 C  s               106      8.967146   7 N  s         
   427      8.876965  25 H  s               361     -8.071348  22 C  py        
   147     -6.563680   9 C  px              515      6.582106  31 S  s         

 Vector  192  Occ=0.000000D+00  E= 4.524427D-01
              MO Center=  4.4D-01,  3.8D-01, -3.4D-01, r^2= 2.3D+01
   Bfn.  Coefficient  Atom+Function         Bfn.  Coefficient  Atom+Function  
  ----- ------------  ---------------      ----- ------------  ---------------
   147     18.429877   9 C  px              471     15.277707  28 C  s         
   106    -11.700510   7 N  s                56     -9.828901   5 C  s         
   411     -8.791180  24 N  py              114     -8.595999   7 N  py        
   174      8.602140  11 C  s               552      7.785011  33 C  s         
   225      7.330277  14 C  py              445     -6.979732  26 C  py        

 Vector  193  Occ=0.000000D+00  E= 4.558904D-01
              MO Center=  3.6D-01, -4.0D-01,  1.3D-01, r^2= 2.2D+01
   Bfn.  Coefficient  Atom+Function         Bfn.  Coefficient  Atom+Function  
  ----- ------------  ---------------      ----- ------------  ---------------
   552     11.811825  33 C  s               114     -9.202389   7 N  py        
   602     -8.556429  35 N  s               361     -8.381864  22 C  py        
   148      7.542597   9 C  py              174      7.550482  11 C  s         
   362     -6.780650  22 C  pz               56     -6.232590   5 C  s         
   360      6.209069  22 C  px              427     -5.917433  25 H  s         

 Vector  194  Occ=0.000000D+00  E= 4.588883D-01
              MO Center=  3.6D-01,  1.2D+00,  9.0D-02, r^2= 2.1D+01
   Bfn.  Coefficient  Atom+Function         Bfn.  Coefficient  Atom+Function  
  ----- ------------  ---------------      ----- ------------  ---------------
   471     30.452006  28 C  s               260     16.960223  17 C  s         
    56    -15.922733   5 C  s               361    -14.670535  22 C  py        
    13     11.837287   2 C  s               445    -11.747350  26 C  py        
   403     10.889814  24 N  s               174    -10.807935  11 C  s         
   148    -10.571191   9 C  py              552    -10.609865  33 C  s         

 Vector  195  Occ=0.000000D+00  E= 4.603060D-01
              MO Center= -2.3D-01,  4.8D-01,  1.6D-01, r^2= 2.3D+01
   Bfn.  Coefficient  Atom+Function         Bfn.  Coefficient  Atom+Function  
  ----- ------------  ---------------      ----- ------------  ---------------
    56     14.720934   5 C  s               148     11.716149   9 C  py        
   552     -9.748458  33 C  s               471     -9.408212  28 C  s         
   411      9.010804  24 N  py              173      7.750906  11 C  s         
   114      7.349734   7 N  py              360     -6.757745  22 C  px        
   174     -6.629315  11 C  s               310     -6.657425  19 N  s         

 Vector  196  Occ=0.000000D+00  E= 4.643041D-01
              MO Center=  2.4D-01, -3.0D-01,  1.1D-01, r^2= 2.3D+01
   Bfn.  Coefficient  Atom+Function         Bfn.  Coefficient  Atom+Function  
  ----- ------------  ---------------      ----- ------------  ---------------
   260     14.938478  17 C  s               403    -12.505592  24 N  s         
   310     -9.185921  19 N  s               471      8.515840  28 C  s         
   149      8.238617   9 C  pz              362     -7.451921  22 C  pz        
   427     -6.645189  25 H  s               411     -6.600049  24 N  py        
   148      6.200462   9 C  py              249     -5.760975  16 H  s         

 Vector  197  Occ=0.000000D+00  E= 4.768332D-01
              MO Center=  1.2D-01, -3.5D-01, -3.0D-01, r^2= 2.3D+01
   Bfn.  Coefficient  Atom+Function         Bfn.  Coefficient  Atom+Function  
  ----- ------------  ---------------      ----- ------------  ---------------
   471     28.785121  28 C  s               361    -20.365825  22 C  py        
    56    -17.389323   5 C  s                13     16.189363   2 C  s         
   217    -13.956334  14 C  s               445     -9.426230  26 C  py        
   446      9.279350  26 C  pz              114     -8.270889   7 N  py        
   503     -8.142845  30 H  s               216     -7.674244  14 C  s         

 Vector  198  Occ=0.000000D+00  E= 4.791389D-01
              MO Center=  7.5D-01, -6.2D-01,  7.6D-02, r^2= 2.3D+01
   Bfn.  Coefficient  Atom+Function         Bfn.  Coefficient  Atom+Function  
  ----- ------------  ---------------      ----- ------------  ---------------
    56     27.480097   5 C  s                13    -21.413628   2 C  s         
   260    -17.130550  17 C  s               217     13.874862  14 C  s         
   361     12.912886  22 C  py               12     -9.106325   2 C  s         
   148     -9.029902   9 C  py              471     -8.476674  28 C  s         
    36      8.049520   3 H  s               106     -7.041460   7 N  s         

 Vector  199  Occ=0.000000D+00  E= 4.822603D-01
              MO Center=  1.6D-02,  2.1D-01,  6.4D-02, r^2= 2.0D+01
   Bfn.  Coefficient  Atom+Function         Bfn.  Coefficient  Atom+Function  
  ----- ------------  ---------------      ----- ------------  ---------------
    56     18.044101   5 C  s               361    -16.664861  22 C  py        
   471     12.657635  28 C  s               147    -12.507781   9 C  px        
   206    -11.537687  13 H  s               552     11.359388  33 C  s         
   403    -10.488095  24 N  s                13     -9.794553   2 C  s         
   163     -9.735655  10 H  s               173      9.672243  11 C  s         

 Vector  200  Occ=0.000000D+00  E= 4.844907D-01
              MO Center= -7.2D-02,  5.9D-01, -3.2D-01, r^2= 1.9D+01
   Bfn.  Coefficient  Atom+Function         Bfn.  Coefficient  Atom+Function  
  ----- ------------  ---------------      ----- ------------  ---------------
   148     23.347292   9 C  py              427    -17.230506  25 H  s         
   260     16.431429  17 C  s                56     15.365183   5 C  s         
   403    -14.733118  24 N  s               552     13.598333  33 C  s         
   361    -11.133325  22 C  py              411     10.646023  24 N  py        
   182     -9.608963  11 C  py              174     -9.272974  11 C  s         

 Vector  201  Occ=0.000000D+00  E= 4.893449D-01
              MO Center= -5.6D-01, -5.9D-01,  3.1D-01, r^2= 2.1D+01
   Bfn.  Coefficient  Atom+Function         Bfn.  Coefficient  Atom+Function  
  ----- ------------  ---------------      ----- ------------  ---------------
    13     33.384541   2 C  s                56    -32.733268   5 C  s         
   174     17.024937  11 C  s               353     12.658901  22 C  s         
   260    -12.168509  17 C  s                63    -11.741215   5 C  px        
   445     10.308754  26 C  py               12     10.088328   2 C  s         
    64      9.834392   5 C  py              173      9.542955  11 C  s         

 Vector  202  Occ=0.000000D+00  E= 4.953721D-01
              MO Center= -6.6D-01, -1.3D+00,  2.2D-04, r^2= 2.0D+01
   Bfn.  Coefficient  Atom+Function         Bfn.  Coefficient  Atom+Function  
  ----- ------------  ---------------      ----- ------------  ---------------
   217     14.771066  14 C  s               147     12.125706   9 C  px        
   552     11.441838  33 C  s               174     10.485991  11 C  s         
    56     -9.707762   5 C  s               197     -9.673918  12 H  s         
   310      9.704177  19 N  s                13     -8.726453   2 C  s         
   173      8.425750  11 C  s               148     -7.560732   9 C  py        

 Vector  203  Occ=0.000000D+00  E= 4.994283D-01
              MO Center= -3.2D-01, -7.9D-01, -2.8D-01, r^2= 2.1D+01
   Bfn.  Coefficient  Atom+Function         Bfn.  Coefficient  Atom+Function  
  ----- ------------  ---------------      ----- ------------  ---------------
   260     10.885400  17 C  s               148     -9.892250   9 C  py        
   216      9.760407  14 C  s                13     -8.408030   2 C  s         
   310     -7.337957  19 N  s               147     -6.872204   9 C  px        
   149     -6.041580   9 C  pz              240     -6.050539  15 H  s         
   410      6.018892  24 N  px               12      5.722571   2 C  s         

 Vector  204  Occ=0.000000D+00  E= 5.034969D-01
              MO Center=  3.8D-01,  5.1D-01, -2.7D-01, r^2= 2.0D+01
   Bfn.  Coefficient  Atom+Function         Bfn.  Coefficient  Atom+Function  
  ----- ------------  ---------------      ----- ------------  ---------------
    56     12.419582   5 C  s               260    -11.058297  17 C  s         
   411      8.550435  24 N  py              471     -8.423852  28 C  s         
   412     -6.064466  24 N  pz              552     -4.924864  33 C  s         
   444      4.823041  26 C  px               81     -4.744004   6 O  s         
   353      4.736041  22 C  s               225      4.625461  14 C  py        


 center of mass
 --------------
 x =   0.02097924 y =   0.06119764 z =   0.00002580

 moments of inertia (a.u.)
 ------------------
        7609.168066851711           0.000000000002           0.000000000000
           0.000000000002        4341.160798041872           0.000000000000
           0.000000000000           0.000000000000       10053.184484598643

  Mulliken analysis of the total density
  --------------------------------------

    Atom       Charge   Shell Charges
 -----------   ------   -------------------------------------------------------
    1 H    1     0.95   0.76  0.21  0.01  0.03 -0.06
    2 C    6     6.61   2.01  0.66  0.34  0.35  2.07  1.04 -0.04  0.06  0.13
    3 H    1     0.78   0.76  0.04  0.01  0.03 -0.07
    4 H    1     0.80   0.76  0.08  0.01  0.03 -0.07
    5 C    6     4.89   2.01  0.68  0.08 -0.20  1.89  0.32 -0.12  0.24 -0.00
    6 O    8     8.76   2.01  0.82  0.99  0.16  2.79  1.83  0.15  0.01 -0.02
    7 N    7     7.80   2.01  0.72  0.91 -0.00  2.45  1.47  0.14  0.05  0.06
    8 H    1     0.96   0.75  0.19 -0.01  0.06 -0.03
    9 C    6     5.95   2.01  0.66  0.03  0.03  2.00  1.06  0.04  0.14 -0.01
   10 H    1     1.25   0.79  0.41 -0.01  0.03  0.05
   11 C    6     5.95   2.01  0.67  0.35  0.02  2.03  0.64 -0.01  0.09  0.16
   12 H    1     0.97   0.78  0.27 -0.03  0.03 -0.08
   13 H    1     0.89   0.78  0.18  0.01  0.03 -0.11
   14 C    6     6.45   2.01  0.66  0.68  0.04  2.05  0.80  0.05  0.09  0.08
   15 H    1     0.86   0.78  0.14  0.01  0.03 -0.09
   16 H    1     0.81   0.78  0.10 -0.03  0.03 -0.07
   17 C    6     4.59   2.01  0.68  0.05  0.06  1.90 -0.19 -0.07  0.24 -0.09
   18 O    8     8.88   2.01  0.81  1.02  0.18  2.82  1.88  0.15  0.02 -0.00
   19 N    7     7.37   2.01  0.72  0.87 -0.11  2.47  1.30  0.08  0.04 -0.01
   20 H    1     0.94   0.75  0.18 -0.01  0.05 -0.05
   21 H    1     0.97   0.75  0.20 -0.01  0.06 -0.03
   22 C    6     4.71   2.01  0.68  0.13  0.01  1.89  0.09 -0.00  0.24 -0.33
   23 O    8     8.88   2.01  0.82  1.05  0.18  2.79  1.87  0.15  0.01  0.00
   24 N    7     7.06   2.01  0.72  0.81 -0.19  2.45  1.44 -0.24  0.05  0.01
   25 H    1     1.02   0.75  0.29  0.01  0.06 -0.08
   26 C    6     6.32   2.01  0.66  0.13 -0.04  2.00  1.33  0.01  0.14  0.09
   27 H    1     1.12   0.76  0.34 -0.02  0.03  0.01
   28 C    6     6.02   2.01  0.66  0.19  0.04  1.99  0.94  0.04  0.10  0.06
   29 H    1     1.05   0.78  0.28 -0.01  0.03 -0.02
   30 H    1     1.04   0.77  0.28  0.01  0.03 -0.04
   31 S   16    15.47   2.00  2.03  0.87  0.71  0.03  6.00  2.31  1.52  0.09  0.10 -0.18
   32 H    1     1.23   0.71  0.44 -0.00  0.03  0.04
   33 C    6     4.76   2.01  0.68  0.14  0.06  1.89 -0.16 -0.02  0.24 -0.08
   34 O    8     8.79   2.01  0.82  1.03  0.18  2.79  1.83  0.13  0.01 -0.01
   35 N    7     7.17   2.01  0.72  0.80 -0.20  2.46  1.24  0.13  0.04 -0.02
   36 H    1     1.02   0.76  0.24 -0.00  0.05 -0.03
   37 H    1     0.89   0.73  0.25 -0.02  0.06 -0.12

       Multipole analysis of the density wrt the origin
       ------------------------------------------------

     L   x y z        total         open         nuclear
     -   - - -        -----         ----         -------
     0   0 0 0      0.000000      0.000000    154.000000

     1   1 0 0     -1.443558      0.000000     -0.000000
     1   0 1 0     -1.872428      0.000000     -0.000000
     1   0 0 1     -0.625875      0.000000     -0.000000

     2   2 0 0    -78.709296      0.000000   1856.585158
     2   1 1 0      0.838842      0.000000    -14.540214
     2   1 0 1     -3.032887      0.000000     -7.369406
     2   0 2 0   -104.868908      0.000000   3597.532902
     2   0 1 1    -12.970336      0.000000    -33.891478
     2   0 0 2    -92.040536      0.000000    529.021912


 Task  times  cpu:    12933.0s     wall:    12971.5s


                                NWChem Input Module
                                -------------------


 Summary of allocated global arrays
-----------------------------------
  No active global arrays


MA_summarize_allocated_blocks: starting scan ...
MA_summarize_allocated_blocks: scan completed: 0 heap blocks, 0 stack blocks
MA usage statistics:

	allocation statistics:
					      heap	     stack
					      ----	     -----
	current number of blocks	         0	         0
	maximum number of blocks	        16	        14
	current total bytes		         0	         0
	maximum total bytes		    146680	  35431512
	maximum total K-bytes		       147	     35432
	maximum total M-bytes		         1	        36


                                     CITATION
                                     --------
                Please cite the following reference when publishing
                           results obtained with NWChem:

          E. Apra, E. J. Bylaska, W. A. de Jong, N. Govind, K. Kowalski,
       T. P. Straatsma, M. Valiev, H. J. J. van Dam, Y. Alexeev, J. Anchell,
       V. Anisimov, F. W. Aquino, R. Atta-Fynn, J. Autschbach, N. P. Bauman,
     J. C. Becca, D. E. Bernholdt, K. Bhaskaran-Nair, S. Bogatko, P. Borowski,
         J. Boschen, J. Brabec, A. Bruner, E. Cauet, Y. Chen, G. N. Chuev,
      C. J. Cramer, J. Daily, M. J. O. Deegan, T. H. Dunning Jr., M. Dupuis,
   K. G. Dyall, G. I. Fann, S. A. Fischer, A. Fonari, H. Fruchtl, L. Gagliardi,
      J. Garza, N. Gawande, S. Ghosh, K. Glaesemann, A. W. Gotz, J. Hammond,
       V. Helms, E. D. Hermes, K. Hirao, S. Hirata, M. Jacquelin, L. Jensen,
   B. G. Johnson, H. Jonsson, R. A. Kendall, M. Klemm, R. Kobayashi, V. Konkov,
      S. Krishnamoorthy, M. Krishnan, Z. Lin, R. D. Lins, R. J. Littlefield,
      A. J. Logsdail, K. Lopata, W. Ma, A. V. Marenich, J. Martin del Campo,
   D. Mejia-Rodriguez, J. E. Moore, J. M. Mullin, T. Nakajima, D. R. Nascimento,
    J. A. Nichols, P. J. Nichols, J. Nieplocha, A. Otero-de-la-Roza, B. Palmer,
    A. Panyala, T. Pirojsirikul, B. Peng, R. Peverati, J. Pittner, L. Pollack,
   R. M. Richard, P. Sadayappan, G. C. Schatz, W. A. Shelton, D. W. Silverstein,
   D. M. A. Smith, T. A. Soares, D. Song, M. Swart, H. L. Taylor, G. S. Thomas,
            V. Tipparaju, D. G. Truhlar, K. Tsemekhman, T. Van Voorhis,
      A. Vazquez-Mayagoitia, P. Verma, O. Villa, A. Vishnu, K. D. Vogiatzis,
        D. Wang, J. H. Weare, M. J. Williamson, T. L. Windus, K. Wolinski,
        A. T. Wong, Q. Wu, C. Yang, Q. Yu, M. Zacharias, Z. Zhang, Y. Zhao,
                                and R. J. Harrison
                        "NWChem: Past, present, and future
                         J. Chem. Phys. 152, 184102 (2020)
                               doi:10.1063/5.0004997

                                      AUTHORS
                                      -------
  E. Apra, E. J. Bylaska, N. Govind, K. Kowalski, M. Valiev, D. Mejia-Rodriguez,
       A. Kunitsa, N. P. Bauman, A. Panyala, W. A. de Jong, T. P. Straatsma,
   H. J. J. van Dam, D. Wang, T. L. Windus, J. Hammond, J. Autschbach, A. Woods,
    K. Bhaskaran-Nair, J. Brabec, K. Lopata, S. A. Fischer, S. Krishnamoorthy,
     M. Jacquelin, W. Ma, M. Klemm, O. Villa, Y. Chen, V. Anisimov, F. Aquino,
     S. Hirata, M. T. Hackler, E. Hermes, L. Jensen, J. E. Moore, J. C. Becca,
      V. Konjkov, T. Risthaus, M. Malagoli, A. Marenich, A. Otero-de-la-Roza,
        J. Mullin, P. Nichols, R. Peverati, J. Pittner, Y. Zhao, P.-D. Fan,
        A. Fonari, M. J. Williamson, R. J. Harrison, J. R. Rehr, M. Dupuis,
     D. Silverstein, D. M. A. Smith, J. Nieplocha, V. Tipparaju, M. Krishnan,
     B. E. Van Kuiken, A. Vazquez-Mayagoitia, M. Swart, Q. Wu, T. Van Voorhis,
     A. A. Auer, M. Nooijen, L. D. Crosby, E. Brown, G. Cisneros, G. I. Fann,
   H. Fruchtl, J. Garza, K. Hirao, R. A. Kendall, J. A. Nichols, K. Tsemekhman,
    K. Wolinski, J. Anchell, D. E. Bernholdt, P. Borowski, T. Clark, D. Clerc,
   H. Dachsel, M. J. O. Deegan, K. Dyall, D. Elwood, E. Glendening, M. Gutowski,
   A. C. Hess, J. Jaffe, B. G. Johnson, J. Ju, R. Kobayashi, R. Kutteh, Z. Lin,
   R. Littlefield, X. Long, B. Meng, T. Nakajima, S. Niu, L. Pollack, M. Rosing,
   K. Glaesemann, G. Sandrone, M. Stave, H. Taylor, G. Thomas, J. H. van Lenthe,
                               A. T. Wong, Z. Zhang.

 Total times  cpu:    12933.0s     wall:    12972.4s
