export TMOUT=5400
export TMPDIR=/tmp
export PTMPDIR=/tmp/ptmp
 argument  1 = inputs/GLN_CYS_0.nw



============================== echo of input deck ==============================
start GLN_CYS_0
geometry
H          7.32200        9.49600       -2.55600
C          7.32900        8.57400       -3.13600
H          8.00500        7.85400       -2.67700
H          7.65900        8.78500       -4.15200
C          5.93400        8.00200       -3.17800
O          5.00700        8.59100       -2.63600
N          5.79200        6.82200       -3.77600
H          6.63300        6.37900       -4.13300
C          4.52000        6.12000       -4.02900
H          3.87700        6.81400       -4.57300
C          4.78900        4.91600       -4.95900
H          3.83700        4.60300       -5.38900
H          5.42300        5.23900       -5.78700
C          5.42500        3.68100       -4.28700
H          4.73500        3.28300       -3.54400
H          5.56500        2.90700       -5.04100
C          6.78000        3.94700       -3.63200
O          7.61700        4.67900       -4.13400
N          7.04300        3.39800       -2.46900
H          7.95200        3.57900       -2.08200
H          6.34200        2.85800       -1.98500
C          3.72000        5.69600       -2.77500
O          2.66400        5.08300       -2.90300
N          4.21100        6.00400       -1.57100
H          5.06500        6.53700       -1.55300
C          3.54100        5.74800       -0.29000
H          2.52300        5.40700       -0.48900
C          4.26900        4.62300        0.46700
H          5.27300        4.95600        0.73300
H          3.72700        4.40800        1.39100
S          4.38000        3.10400       -0.52900
H          3.06200        2.94100       -0.71200
C          3.38400        7.02000        0.57200
O          3.05800        6.93400        1.74900
N          3.63100        8.21000        0.03500
H          3.90400        8.29500       -0.93600
H          3.52300        9.02600        0.61500
end

basis
 * library aug-cc-pvdz
end

echo

scf
 direct
end

task scf energy
================================================================================


                                         
                                         


             Northwest Computational Chemistry Package (NWChem) 7.2.0
             --------------------------------------------------------


                    Environmental Molecular Sciences Laboratory
                       Pacific Northwest National Laboratory
                                Richland, WA 99352

                              Copyright (c) 1994-2022
                       Pacific Northwest National Laboratory
                            Battelle Memorial Institute

             NWChem is an open-source computational chemistry package
                        distributed under the terms of the
                      Educational Community License (ECL) 2.0
             A copy of the license is included with this distribution
                              in the LICENSE.TXT file

                                  ACKNOWLEDGMENT
                                  --------------

            This software and its documentation were developed at the
            EMSL at Pacific Northwest National Laboratory, a multiprogram
            national laboratory, operated for the U.S. Department of Energy
            by Battelle under Contract Number DE-AC05-76RL01830. Support
            for this work was provided by the Department of Energy Office
            of Biological and Environmental Research, Office of Basic
            Energy Sciences, and the Office of Advanced Scientific Computing.


           Job information
           ---------------

    hostname        = nova18-32
    program         = /opt/rit/el9/20230413/app/linux-rhel9-x86_64_v3/gcc-11.2.1/nwchem-7.2.0-oxtctbuhfuzyfaoziquq6bki22grib3g/bin/nwchem
    date            = Thu Jul  3 13:38:33 2025

    compiled        = Wed_May_17_23:46:39_2023
    source          = /tmp/root/spack-stage/spack-stage-nwchem-7.2.0-oxtctbuhfuzyfaoziquq6bki22grib3g/spack-src
    nwchem branch   = 7.2.0
    nwchem revision = d0d141fd
    ga revision     = 5.8.0
    use scalapack   = T
    input           = inputs/GLN_CYS_0.nw
    prefix          = GLN_CYS_0.
    data base       = ./GLN_CYS_0.db
    status          = startup
    nproc           =        1
    time left       =     -1s



           Memory information
           ------------------

    heap     =   26214396 doubles =    200.0 Mbytes
    stack    =   26214401 doubles =    200.0 Mbytes
    global   =   52428800 doubles =    400.0 Mbytes (distinct from heap & stack)
    total    =  104857597 doubles =    800.0 Mbytes
    verify   = yes
    hardfail = no 


           Directory information
           ---------------------

  0 permanent = .
  0 scratch   = .




                                NWChem Input Module
                                -------------------



 Scaling coordinates for geometry "geometry" by  1.889725989
 (inverse scale =  0.529177249)

 C1  symmetry detected

          ------
          auto-z
          ------
  no constraints, skipping    0.0000000000000000     
  no constraints, skipping    0.0000000000000000     


                             Geometry "geometry" -> ""
                             -------------------------

 Output coordinates in angstroms (scale by  1.889725989 to convert to a.u.)

  No.       Tag          Charge          X              Y              Z
 ---- ---------------- ---------- -------------- -------------- --------------
    1 H                    1.0000     4.07033235    -0.81328453     1.83237720
    2 C                    6.0000     3.28514949    -1.49903597     1.51651990
    3 H                    1.0000     2.56929726    -1.63864291     2.32529830
    4 H                    1.0000     3.72479885    -2.45926358     1.25128723
    5 C                    6.0000     2.58092368    -0.92787017     0.31119479
    6 O                    8.0000     2.94678347     0.13599442    -0.17290517
    7 N                    7.0000     1.53123477    -1.60770953    -0.14283124
    8 H                    1.0000     1.26218869    -2.44189304     0.36974175
    9 C                    6.0000     0.75494823    -1.30344236    -1.35921839
   10 H                    1.0000     1.46563490    -1.25675942    -2.18611993
   11 C                    6.0000    -0.20800796    -2.47722659    -1.64526553
   12 H                    1.0000    -0.53524462    -2.39954952    -2.68259646
   13 H                    1.0000     0.33803566    -3.41796311    -1.55188371
   14 C                    6.0000    -1.47162063    -2.53607259    -0.76145268
   15 H                    1.0000    -2.08046916    -1.65241578    -0.94855456
   16 H                    1.0000    -2.06398902    -3.40148783    -1.05699989
   17 C                    6.0000    -1.18915418    -2.65147541     0.73611231
   18 O                    8.0000    -0.28526636    -3.33998362     1.18034227
   19 N                    7.0000    -1.92094927    -1.95791988     1.57670476
   20 H                    1.0000    -1.71878763    -2.07777858     2.55321670
   21 H                    1.0000    -2.61910816    -1.31278444     1.23961216
   22 C                    6.0000     0.00928339     0.05163861    -1.36483319
   23 O                    8.0000    -0.68055855     0.36481896    -2.33092075
   24 N                    7.0000     0.13011214     0.85048223    -0.30049759
   25 H                    1.0000     0.74092196     0.53535014     0.43525518
   26 C                    6.0000    -0.44262279     2.19691512    -0.18012247
   27 H                    1.0000    -0.84934950     2.49262761    -1.14931467
   28 C                    6.0000    -1.60532082     2.18404228     0.82815606
   29 H                    1.0000    -1.22096052     1.94889257     1.82144996
   30 H                    1.0000    -2.05453585     3.17933316     0.86512777
   31 S                   16.0000    -2.88001322     0.96876868     0.36993410
   32 H                    1.0000    -3.14966929     1.47512501    -0.84170565
   33 C                    6.0000     0.61225380     3.27119771     0.16459378
   34 O                    8.0000     0.26360517     4.38939551     0.52107495
   35 N                    7.0000     1.90382211     2.96652388     0.09748822
   36 H                    1.0000     2.20559585     2.04504159    -0.19302512
   37 H                    1.0000     2.57447832     3.68169105     0.32700109

      Atomic Mass 
      ----------- 

      H                  1.007825
      C                 12.000000
      O                 15.994910
      N                 14.003070
      S                 31.972070


 Effective nuclear repulsion energy (a.u.)    1754.4796293950

            Nuclear Dipole moment (a.u.) 
            ----------------------------
        X                 Y               Z
 ---------------- ---------------- ----------------
    -0.0000000000     0.0000000000     0.0000000000



                                Z-matrix (autoz)
                                -------- 

 Units are Angstrom for bonds and degrees for angles

      Type          Name      I     J     K     L     M      Value
      ----------- --------  ----- ----- ----- ----- ----- ----------
    1 Stretch                  1     2                       1.08928
    2 Stretch                  2     3                       1.08906
    3 Stretch                  2     4                       1.08889
    4 Stretch                  2     5                       1.50830
    5 Stretch                  5     6                       1.22475
    6 Stretch                  5     7                       1.33048
    7 Stretch                  7     8                       1.01537
    8 Stretch                  7     9                       1.47472
    9 Stretch                  9    10                       1.09134
   10 Stretch                  9    11                       1.54495
   11 Stretch                  9    22                       1.54670
   12 Stretch                 11    12                       1.09049
   13 Stretch                 11    13                       1.09173
   14 Stretch                 11    14                       1.54315
   15 Stretch                 14    15                       1.08929
   16 Stretch                 14    16                       1.08958
   17 Stretch                 14    17                       1.52833
   18 Stretch                 17    18                       1.22000
   19 Stretch                 17    19                       1.31268
   20 Stretch                 19    20                       1.00440
   21 Stretch                 19    21                       1.00859
   22 Stretch                 22    23                       1.22772
   23 Stretch                 22    24                       1.33625
   24 Stretch                 24    25                       1.00684
   25 Stretch                 24    26                       1.46813
   26 Stretch                 26    27                       1.09188
   27 Stretch                 26    28                       1.53904
   28 Stretch                 26    33                       1.54456
   29 Stretch                 28    29                       1.09072
   30 Stretch                 28    30                       1.09260
   31 Stretch                 28    31                       1.81981
   32 Stretch                 31    32                       1.34059
   33 Stretch                 33    34                       1.22434
   34 Stretch                 33    35                       1.32871
   35 Stretch                 35    36                       1.01222
   36 Stretch                 35    37                       1.00694
   37 Bend                     1     2     3               109.82613
   38 Bend                     1     2     4               109.55730
   39 Bend                     1     2     5               109.26142
   40 Bend                     2     5     6               120.35328
   41 Bend                     2     5     7               116.58790
   42 Bend                     3     2     4               109.46584
   43 Bend                     3     2     5               109.57903
   44 Bend                     4     2     5               109.13533
   45 Bend                     5     7     8               117.16651
   46 Bend                     5     7     9               126.25295
   47 Bend                     6     5     7               123.00049
   48 Bend                     7     9    10               106.91780
   49 Bend                     7     9    11               108.90867
   50 Bend                     7     9    22               115.94640
   51 Bend                     8     7     9               116.51342
   52 Bend                     9    11    12               108.00161
   53 Bend                     9    11    13               109.09232
   54 Bend                     9    11    14               115.67818
   55 Bend                     9    22    23               119.81701
   56 Bend                     9    22    24               118.50761
   57 Bend                    10     9    11               107.34375
   58 Bend                    10     9    22               105.88570
   59 Bend                    11     9    22               111.37478
   60 Bend                    11    14    15               109.17049
   61 Bend                    11    14    16               108.67004
   62 Bend                    11    14    17               114.37721
   63 Bend                    12    11    13               107.02781
   64 Bend                    12    11    14               107.56613
   65 Bend                    13    11    14               109.13002
   66 Bend                    14    17    18               122.43467
   67 Bend                    14    17    19               118.98241
   68 Bend                    15    14    16               107.08897
   69 Bend                    15    14    17               109.44274
   70 Bend                    16    14    17               107.83598
   71 Bend                    17    19    20               116.57226
   72 Bend                    17    19    21               120.65218
   73 Bend                    18    17    19               118.55726
   74 Bend                    20    19    21               122.72446
   75 Bend                    22    24    25               116.73054
   76 Bend                    22    24    26               125.33131
   77 Bend                    23    22    24               121.67362
   78 Bend                    24    26    27               108.71840
   79 Bend                    24    26    28               109.92333
   80 Bend                    24    26    33               112.93831
   81 Bend                    25    24    26               117.63235
   82 Bend                    26    28    29               109.40229
   83 Bend                    26    28    30               108.97502
   84 Bend                    26    28    31               111.70303
   85 Bend                    26    33    34               120.37965
   86 Bend                    26    33    35               119.54540
   87 Bend                    27    26    28               107.60011
   88 Bend                    27    26    33               105.31575
   89 Bend                    28    26    33               112.05889
   90 Bend                    28    31    32                96.67482
   91 Bend                    29    28    30               108.08697
   92 Bend                    29    28    31               109.40046
   93 Bend                    30    28    31               109.19973
   94 Bend                    33    35    36               120.86619
   95 Bend                    33    35    37               118.23231
   96 Bend                    34    33    35               120.06163
   97 Bend                    36    35    37               120.89217
   98 Torsion                  1     2     5     6           1.71620
   99 Torsion                  1     2     5     7        -175.58863
  100 Torsion                  2     5     7     8           1.91743
  101 Torsion                  2     5     7     9        -174.98550
  102 Torsion                  3     2     5     6         122.08819
  103 Torsion                  3     2     5     7         -55.21664
  104 Torsion                  4     2     5     6        -118.05797
  105 Torsion                  4     2     5     7          64.63719
  106 Torsion                  5     7     9    10          54.39694
  107 Torsion                  5     7     9    11         170.09011
  108 Torsion                  5     7     9    22         -63.38897
  109 Torsion                  6     5     7     8        -175.30938
  110 Torsion                  6     5     7     9           7.78769
  111 Torsion                  7     9    11    12        -162.29824
  112 Torsion                  7     9    11    13         -46.30230
  113 Torsion                  7     9    11    14          77.14771
  114 Torsion                  7     9    22    23        -178.52794
  115 Torsion                  7     9    22    24           0.99706
  116 Torsion                  8     7     9    10        -122.52382
  117 Torsion                  8     7     9    11          -6.83066
  118 Torsion                  8     7     9    22         119.69027
  119 Torsion                  9    11    14    15          63.60489
  120 Torsion                  9    11    14    16        -179.91655
  121 Torsion                  9    11    14    17         -59.38143
  122 Torsion                  9    22    24    25           2.63445
  123 Torsion                  9    22    24    26         176.10800
  124 Torsion                 10     9    11    12         -46.87964
  125 Torsion                 10     9    11    13          69.11629
  126 Torsion                 10     9    11    14        -167.43370
  127 Torsion                 10     9    22    23          63.11647
  128 Torsion                 10     9    22    24        -117.35852
  129 Torsion                 11     9    22    23         -53.25687
  130 Torsion                 11     9    22    24         126.26813
  131 Torsion                 11    14    17    18         -38.93512
  132 Torsion                 11    14    17    19         139.19491
  133 Torsion                 12    11     9    22          68.59870
  134 Torsion                 12    11    14    15         -57.18469
  135 Torsion                 12    11    14    16          59.29387
  136 Torsion                 12    11    14    17         179.82899
  137 Torsion                 13    11     9    22        -175.40536
  138 Torsion                 13    11    14    15        -172.96488
  139 Torsion                 13    11    14    16         -56.48632
  140 Torsion                 13    11    14    17          64.04880
  141 Torsion                 14    11     9    22         -51.95535
  142 Torsion                 14    17    19    20         178.58007
  143 Torsion                 14    17    19    21          -3.95006
  144 Torsion                 15    14    17    18        -161.77408
  145 Torsion                 15    14    17    19          16.35595
  146 Torsion                 16    14    17    18          82.06208
  147 Torsion                 16    14    17    19         -99.80789
  148 Torsion                 18    17    19    20          -3.21678
  149 Torsion                 18    17    19    21         174.25309
  150 Torsion                 22    24    26    27          -8.40479
  151 Torsion                 22    24    26    28         109.13707
  152 Torsion                 22    24    26    33        -124.90713
  153 Torsion                 23    22    24    25        -177.84979
  154 Torsion                 23    22    24    26          -4.37624
  155 Torsion                 24    26    28    29          65.07367
  156 Torsion                 24    26    28    30        -176.94606
  157 Torsion                 24    26    28    31         -56.20604
  158 Torsion                 24    26    33    34        -167.44080
  159 Torsion                 24    26    33    35          11.23226
  160 Torsion                 25    24    26    27         165.01557
  161 Torsion                 25    24    26    28         -77.44258
  162 Torsion                 25    24    26    33          48.51322
  163 Torsion                 26    28    31    32         -58.19890
  164 Torsion                 26    33    35    36           1.14142
  165 Torsion                 26    33    35    37        -179.96052
  166 Torsion                 27    26    28    29        -176.69137
  167 Torsion                 27    26    28    30         -58.71110
  168 Torsion                 27    26    28    31          62.02892
  169 Torsion                 27    26    33    34          74.05618
  170 Torsion                 27    26    33    35        -107.27076
  171 Torsion                 28    26    33    34         -42.63899
  172 Torsion                 28    26    33    35         136.03407
  173 Torsion                 29    28    26    33         -61.37972
  174 Torsion                 29    28    31    32        -179.47967
  175 Torsion                 30    28    26    33          56.60055
  176 Torsion                 30    28    31    32          62.41003
  177 Torsion                 31    28    26    33         177.34057
  178 Torsion                 34    33    35    36         179.81876
  179 Torsion                 34    33    35    37          -1.28318


            XYZ format geometry
            -------------------
    37
 geometry
 H                     4.07033235    -0.81328453     1.83237720
 C                     3.28514949    -1.49903597     1.51651990
 H                     2.56929726    -1.63864291     2.32529830
 H                     3.72479885    -2.45926358     1.25128723
 C                     2.58092368    -0.92787017     0.31119479
 O                     2.94678347     0.13599442    -0.17290517
 N                     1.53123477    -1.60770953    -0.14283124
 H                     1.26218869    -2.44189304     0.36974175
 C                     0.75494823    -1.30344236    -1.35921839
 H                     1.46563490    -1.25675942    -2.18611993
 C                    -0.20800796    -2.47722659    -1.64526553
 H                    -0.53524462    -2.39954952    -2.68259646
 H                     0.33803566    -3.41796311    -1.55188371
 C                    -1.47162063    -2.53607259    -0.76145268
 H                    -2.08046916    -1.65241578    -0.94855456
 H                    -2.06398902    -3.40148783    -1.05699989
 C                    -1.18915418    -2.65147541     0.73611231
 O                    -0.28526636    -3.33998362     1.18034227
 N                    -1.92094927    -1.95791988     1.57670476
 H                    -1.71878763    -2.07777858     2.55321670
 H                    -2.61910816    -1.31278444     1.23961216
 C                     0.00928339     0.05163861    -1.36483319
 O                    -0.68055855     0.36481896    -2.33092075
 N                     0.13011214     0.85048223    -0.30049759
 H                     0.74092196     0.53535014     0.43525518
 C                    -0.44262279     2.19691512    -0.18012247
 H                    -0.84934950     2.49262761    -1.14931467
 C                    -1.60532082     2.18404228     0.82815606
 H                    -1.22096052     1.94889257     1.82144996
 H                    -2.05453585     3.17933316     0.86512777
 S                    -2.88001322     0.96876868     0.36993410
 H                    -3.14966929     1.47512501    -0.84170565
 C                     0.61225380     3.27119771     0.16459378
 O                     0.26360517     4.38939551     0.52107495
 N                     1.90382211     2.96652388     0.09748822
 H                     2.20559585     2.04504159    -0.19302512
 H                     2.57447832     3.68169105     0.32700109

 ==============================================================================
                                internuclear distances
 ------------------------------------------------------------------------------
       center one      |      center two      | atomic units |  angstroms
 ------------------------------------------------------------------------------
    2 C                |   1 H                |     2.05844  |     1.08928
    3 H                |   2 C                |     2.05803  |     1.08906
    4 H                |   2 C                |     2.05770  |     1.08889
    5 C                |   2 C                |     2.85028  |     1.50830
    6 O                |   5 C                |     2.31444  |     1.22475
    7 N                |   5 C                |     2.51424  |     1.33048
    8 H                |   7 N                |     1.91877  |     1.01537
    9 C                |   7 N                |     2.78682  |     1.47472
   10 H                |   9 C                |     2.06233  |     1.09134
   11 C                |   9 C                |     2.91954  |     1.54495
   12 H                |  11 C                |     2.06073  |     1.09049
   13 H                |  11 C                |     2.06307  |     1.09173
   14 C                |  11 C                |     2.91613  |     1.54315
   15 H                |  14 C                |     2.05846  |     1.08929
   16 H                |  14 C                |     2.05901  |     1.08958
   17 C                |  14 C                |     2.88813  |     1.52833
   18 O                |  17 C                |     2.30546  |     1.22000
   19 N                |  17 C                |     2.48061  |     1.31268
   20 H                |  19 N                |     1.89803  |     1.00440
   21 H                |  19 N                |     1.90596  |     1.00859
   22 C                |   9 C                |     2.92285  |     1.54670
   23 O                |  22 C                |     2.32005  |     1.22772
   24 N                |  22 C                |     2.52514  |     1.33625
   25 H                |  24 N                |     1.90265  |     1.00684
   26 C                |  24 N                |     2.77436  |     1.46813
   27 H                |  26 C                |     2.06336  |     1.09188
   28 C                |  26 C                |     2.90837  |     1.53904
   29 H                |  28 C                |     2.06115  |     1.09072
   30 H                |  28 C                |     2.06471  |     1.09260
   31 S                |  28 C                |     3.43894  |     1.81981
   32 H                |  31 S                |     2.53335  |     1.34059
   33 C                |  26 C                |     2.91880  |     1.54456
   34 O                |  33 C                |     2.31366  |     1.22434
   35 N                |  33 C                |     2.51090  |     1.32871
   36 H                |  35 N                |     1.91282  |     1.01222
   37 H                |  35 N                |     1.90283  |     1.00694
 ------------------------------------------------------------------------------
                         number of included internuclear distances:         36
 ==============================================================================



 ==============================================================================
                                 internuclear angles
 ------------------------------------------------------------------------------
        center 1       |       center 2       |       center 3       |  degrees
 ------------------------------------------------------------------------------
    1 H                |   2 C                |   3 H                |   109.83
    1 H                |   2 C                |   4 H                |   109.56
    1 H                |   2 C                |   5 C                |   109.26
    3 H                |   2 C                |   4 H                |   109.47
    3 H                |   2 C                |   5 C                |   109.58
    4 H                |   2 C                |   5 C                |   109.14
    2 C                |   5 C                |   6 O                |   120.35
    2 C                |   5 C                |   7 N                |   116.59
    6 O                |   5 C                |   7 N                |   123.00
    5 C                |   7 N                |   8 H                |   117.17
    5 C                |   7 N                |   9 C                |   126.25
    8 H                |   7 N                |   9 C                |   116.51
    7 N                |   9 C                |  10 H                |   106.92
    7 N                |   9 C                |  11 C                |   108.91
    7 N                |   9 C                |  22 C                |   115.95
   10 H                |   9 C                |  11 C                |   107.34
   10 H                |   9 C                |  22 C                |   105.89
   11 C                |   9 C                |  22 C                |   111.37
    9 C                |  11 C                |  12 H                |   108.00
    9 C                |  11 C                |  13 H                |   109.09
    9 C                |  11 C                |  14 C                |   115.68
   12 H                |  11 C                |  13 H                |   107.03
   12 H                |  11 C                |  14 C                |   107.57
   13 H                |  11 C                |  14 C                |   109.13
   11 C                |  14 C                |  15 H                |   109.17
   11 C                |  14 C                |  16 H                |   108.67
   11 C                |  14 C                |  17 C                |   114.38
   15 H                |  14 C                |  16 H                |   107.09
   15 H                |  14 C                |  17 C                |   109.44
   16 H                |  14 C                |  17 C                |   107.84
   14 C                |  17 C                |  18 O                |   122.43
   14 C                |  17 C                |  19 N                |   118.98
   18 O                |  17 C                |  19 N                |   118.56
   17 C                |  19 N                |  20 H                |   116.57
   17 C                |  19 N                |  21 H                |   120.65
   20 H                |  19 N                |  21 H                |   122.72
    9 C                |  22 C                |  23 O                |   119.82
    9 C                |  22 C                |  24 N                |   118.51
   23 O                |  22 C                |  24 N                |   121.67
   22 C                |  24 N                |  25 H                |   116.73
   22 C                |  24 N                |  26 C                |   125.33
   25 H                |  24 N                |  26 C                |   117.63
   24 N                |  26 C                |  27 H                |   108.72
   24 N                |  26 C                |  28 C                |   109.92
   24 N                |  26 C                |  33 C                |   112.94
   27 H                |  26 C                |  28 C                |   107.60
   27 H                |  26 C                |  33 C                |   105.32
   28 C                |  26 C                |  33 C                |   112.06
   26 C                |  28 C                |  29 H                |   109.40
   26 C                |  28 C                |  30 H                |   108.98
   26 C                |  28 C                |  31 S                |   111.70
   29 H                |  28 C                |  30 H                |   108.09
   29 H                |  28 C                |  31 S                |   109.40
   30 H                |  28 C                |  31 S                |   109.20
   28 C                |  31 S                |  32 H                |    96.67
   26 C                |  33 C                |  34 O                |   120.38
   26 C                |  33 C                |  35 N                |   119.55
   34 O                |  33 C                |  35 N                |   120.06
   33 C                |  35 N                |  36 H                |   120.87
   33 C                |  35 N                |  37 H                |   118.23
   36 H                |  35 N                |  37 H                |   120.89
 ------------------------------------------------------------------------------
                            number of included internuclear angles:         61
 ==============================================================================



  library name resolved from: environment
  library file name is: </opt/rit/el9/20230413/app/linux-rhel9-x86_64_v3/gcc-11.2.1/nwchem-7.2.0-oxtctbuhfuzyfaoziquq6bki22grib3g/share/nwchem/libraries/>
  


 Summary of "ao basis" -> "" (cartesian)
 ------------------------------------------------------------------------------
       Tag                 Description            Shells   Functions and Types
 ---------------- ------------------------------  ------  ---------------------
 *                        aug-cc-pvdz                 on all atoms 


                      Basis "ao basis" -> "ao basis" (cartesian)
                      -----
  H (Hydrogen)
  ------------
            Exponent  Coefficients 
       -------------- ---------------------------------------------------------
  1 S  1.30100000E+01  0.019685
  1 S  1.96200000E+00  0.137977
  1 S  4.44600000E-01  0.478148

  2 S  1.22000000E-01  1.000000

  3 S  2.97400000E-02  1.000000

  4 P  7.27000000E-01  1.000000

  5 P  1.41000000E-01  1.000000

  C (Carbon)
  ----------
            Exponent  Coefficients 
       -------------- ---------------------------------------------------------
  1 S  6.66500000E+03  0.000692
  1 S  1.00000000E+03  0.005329
  1 S  2.28000000E+02  0.027077
  1 S  6.47100000E+01  0.101718
  1 S  2.10600000E+01  0.274740
  1 S  7.49500000E+00  0.448564
  1 S  2.79700000E+00  0.285074
  1 S  5.21500000E-01  0.015204

  2 S  6.66500000E+03 -0.000146
  2 S  1.00000000E+03 -0.001154
  2 S  2.28000000E+02 -0.005725
  2 S  6.47100000E+01 -0.023312
  2 S  2.10600000E+01 -0.063955
  2 S  7.49500000E+00 -0.149981
  2 S  2.79700000E+00 -0.127262
  2 S  5.21500000E-01  0.544529

  3 S  1.59600000E-01  1.000000

  4 S  4.69000000E-02  1.000000

  5 P  9.43900000E+00  0.038109
  5 P  2.00200000E+00  0.209480
  5 P  5.45600000E-01  0.508557

  6 P  1.51700000E-01  1.000000

  7 P  4.04100000E-02  1.000000

  8 D  5.50000000E-01  1.000000

  9 D  1.51000000E-01  1.000000

  O (Oxygen)
  ----------
            Exponent  Coefficients 
       -------------- ---------------------------------------------------------
  1 S  1.17200000E+04  0.000710
  1 S  1.75900000E+03  0.005470
  1 S  4.00800000E+02  0.027837
  1 S  1.13700000E+02  0.104800
  1 S  3.70300000E+01  0.283062
  1 S  1.32700000E+01  0.448719
  1 S  5.02500000E+00  0.270952
  1 S  1.01300000E+00  0.015458

  2 S  1.17200000E+04 -0.000160
  2 S  1.75900000E+03 -0.001263
  2 S  4.00800000E+02 -0.006267
  2 S  1.13700000E+02 -0.025716
  2 S  3.70300000E+01 -0.070924
  2 S  1.32700000E+01 -0.165411
  2 S  5.02500000E+00 -0.116955
  2 S  1.01300000E+00  0.557368

  3 S  3.02300000E-01  1.000000

  4 S  7.89600000E-02  1.000000

  5 P  1.77000000E+01  0.043018
  5 P  3.85400000E+00  0.228913
  5 P  1.04600000E+00  0.508728

  6 P  2.75300000E-01  1.000000

  7 P  6.85600000E-02  1.000000

  8 D  1.18500000E+00  1.000000

  9 D  3.32000000E-01  1.000000

  N (Nitrogen)
  ------------
            Exponent  Coefficients 
       -------------- ---------------------------------------------------------
  1 S  9.04600000E+03  0.000700
  1 S  1.35700000E+03  0.005389
  1 S  3.09300000E+02  0.027406
  1 S  8.77300000E+01  0.103207
  1 S  2.85600000E+01  0.278723
  1 S  1.02100000E+01  0.448540
  1 S  3.83800000E+00  0.278238
  1 S  7.46600000E-01  0.015440

  2 S  9.04600000E+03 -0.000153
  2 S  1.35700000E+03 -0.001208
  2 S  3.09300000E+02 -0.005992
  2 S  8.77300000E+01 -0.024544
  2 S  2.85600000E+01 -0.067459
  2 S  1.02100000E+01 -0.158078
  2 S  3.83800000E+00 -0.121831
  2 S  7.46600000E-01  0.549003

  3 S  2.24800000E-01  1.000000

  4 S  6.12400000E-02  1.000000

  5 P  1.35500000E+01  0.039919
  5 P  2.91700000E+00  0.217169
  5 P  7.97300000E-01  0.510319

  6 P  2.18500000E-01  1.000000

  7 P  5.61100000E-02  1.000000

  8 D  8.17000000E-01  1.000000

  9 D  2.30000000E-01  1.000000

  S (Sulphur)
  -----------
            Exponent  Coefficients 
       -------------- ---------------------------------------------------------
  1 S  1.10800000E+05  0.000248
  1 S  1.66100000E+04  0.001920
  1 S  3.78100000E+03  0.009962
  1 S  1.07100000E+03  0.040298
  1 S  3.49800000E+02  0.128604
  1 S  1.26300000E+02  0.303480
  1 S  4.92600000E+01  0.421432
  1 S  2.01600000E+01  0.230781
  1 S  5.72000000E+00  0.017897
  1 S  2.18200000E+00 -0.002975
  1 S  4.32700000E-01  0.000850

  2 S  1.10800000E+05 -0.000069
  2 S  1.66100000E+04 -0.000528
  2 S  3.78100000E+03 -0.002797
  2 S  1.07100000E+03 -0.011265
  2 S  3.49800000E+02 -0.038883
  2 S  1.26300000E+02 -0.099503
  2 S  4.92600000E+01 -0.199740
  2 S  2.01600000E+01 -0.123360
  2 S  5.72000000E+00  0.513194
  2 S  2.18200000E+00  0.607120
  2 S  4.32700000E-01  0.039675

  3 S  1.10800000E+05  0.000020
  3 S  1.66100000E+04  0.000153
  3 S  3.78100000E+03  0.000810
  3 S  1.07100000E+03  0.003290
  3 S  3.49800000E+02  0.011297
  3 S  1.26300000E+02  0.029639
  3 S  4.92600000E+01  0.059985
  3 S  2.01600000E+01  0.041325
  3 S  5.72000000E+00 -0.207474
  3 S  2.18200000E+00 -0.392889
  3 S  4.32700000E-01  0.632840

  4 S  1.57000000E-01  1.000000

  5 S  5.07000000E-02  1.000000

  6 P  3.99700000E+02  0.004475
  6 P  9.41900000E+01  0.034171
  6 P  2.97500000E+01  0.144250
  6 P  1.07700000E+01  0.353928
  6 P  4.11900000E+00  0.459085
  6 P  1.62500000E+00  0.206383
  6 P  4.72600000E-01  0.010214

  7 P  3.99700000E+02 -0.001163
  7 P  9.41900000E+01 -0.008657
  7 P  2.97500000E+01 -0.039089
  7 P  1.07700000E+01 -0.093463
  7 P  4.11900000E+00 -0.147994
  7 P  1.62500000E+00  0.030190
  7 P  4.72600000E-01  0.561573

  8 P  1.40700000E-01  1.000000

  9 P  3.99000000E-02  1.000000

 10 D  4.79000000E-01  1.000000

 11 D  1.52000000E-01  1.000000



 Summary of "ao basis" -> "ao basis" (cartesian)
 ------------------------------------------------------------------------------
       Tag                 Description            Shells   Functions and Types
 ---------------- ------------------------------  ------  ---------------------
 H                        aug-cc-pvdz                5        9   3s2p
 C                        aug-cc-pvdz                9       25   4s3p2d
 O                        aug-cc-pvdz                9       25   4s3p2d
 N                        aug-cc-pvdz                9       25   4s3p2d
 S                        aug-cc-pvdz               11       29   5s4p2d


                                 NWChem SCF Module
                                 -----------------



  ao basis        = "ao basis"
  functions       =   641
  atoms           =    37
  closed shells   =    77
  open shells     =     0
  charge          =   0.00
  wavefunction    = RHF 
  input vectors   = atomic
  output vectors  = ./GLN_CYS_0.movecs
  use symmetry    = F
  symmetry adapt  = F


 Summary of "ao basis" -> "ao basis" (cartesian)
 ------------------------------------------------------------------------------
       Tag                 Description            Shells   Functions and Types
 ---------------- ------------------------------  ------  ---------------------
 H                        aug-cc-pvdz                5        9   3s2p
 C                        aug-cc-pvdz                9       25   4s3p2d
 O                        aug-cc-pvdz                9       25   4s3p2d
 N                        aug-cc-pvdz                9       25   4s3p2d
 S                        aug-cc-pvdz               11       29   5s4p2d



 Forming initial guess at       1.1s


 !! The overlap matrix has   5 vectors deemed linearly dependent with
    eigenvalues:
 2.79D-06 4.28D-06 5.44D-06 7.69D-06 8.03D-06


      Superposition of Atomic Density Guess
      -------------------------------------

 Sum of atomic energies:       -1299.41518133

      Non-variational initial energy
      ------------------------------

 Total energy =   -1311.379238
 1-e energy   =   -5266.627441
 2-e energy   =    2200.768573
 HOMO         =      -0.287443
 LUMO         =       0.008963


 Starting SCF solution at     772.7s



 ----------------------------------------------
         Quadratically convergent ROHF

 Convergence threshold     :          1.000E-04
 Maximum no. of iterations :           30
 Final Fock-matrix accuracy:          1.000E-10
 ----------------------------------------------


              iter       energy          gnorm     gmax       time
             ----- ------------------- --------- --------- --------
                 1    -1303.7076845524  2.69D+00  1.27D-01   1607.2
                 2    -1304.0904078925  8.93D-01  4.40D-02   3292.3
                 3    -1304.1616996103  7.25D-02  3.40D-03   5666.3
                 4    -1304.1624815729  4.47D-03  3.73D-04   8818.9
                 5    -1304.1624854808  9.81D-06  4.00D-07  14267.8


       Final RHF  results 
       ------------------ 

         Total SCF energy =  -1304.162485480762
      One-electron energy =  -5279.088174671228
      Two-electron energy =   2220.446059795513
 Nuclear repulsion energy =   1754.479629394953

        Time for solution =  13498.5s


             Final eigenvalues
             -----------------

              1      
    1  -91.9723
    2  -20.5453
    3  -20.5388
    4  -20.5359
    5  -20.5233
    6  -15.6087
    7  -15.6076
    8  -15.6067
    9  -15.5876
   10  -11.3732
   11  -11.3715
   12  -11.3715
   13  -11.3614
   14  -11.3131
   15  -11.3103
   16  -11.2890
   17  -11.2653
   18  -11.2638
   19  -11.2540
   20   -8.9741
   21   -6.6565
   22   -6.6553
   23   -6.6532
   24   -1.4135
   25   -1.4101
   26   -1.3966
   27   -1.3861
   28   -1.2664
   29   -1.2536
   30   -1.2397
   31   -1.2111
   32   -1.1025
   33   -1.0873
   34   -1.0312
   35   -0.9933
   36   -0.9755
   37   -0.8908
   38   -0.8645
   39   -0.8296
   40   -0.8137
   41   -0.8057
   42   -0.7938
   43   -0.7545
   44   -0.7473
   45   -0.7241
   46   -0.7030
   47   -0.6969
   48   -0.6842
   49   -0.6721
   50   -0.6545
   51   -0.6417
   52   -0.6278
   53   -0.6259
   54   -0.6172
   55   -0.6077
   56   -0.5995
   57   -0.5957
   58   -0.5908
   59   -0.5798
   60   -0.5755
   61   -0.5555
   62   -0.5467
   63   -0.5416
   64   -0.5370
   65   -0.5227
   66   -0.5190
   67   -0.5016
   68   -0.4774
   69   -0.4533
   70   -0.4519
   71   -0.4387
   72   -0.4366
   73   -0.4302
   74   -0.4087
   75   -0.4049
   76   -0.3973
   77   -0.3730
   78    0.0256
   79    0.0334
   80    0.0351
   81    0.0451
   82    0.0485
   83    0.0513
   84    0.0559
   85    0.0586
   86    0.0632
   87    0.0707

                       ROHF Final Molecular Orbital Analysis
                       -------------------------------------

 Vector   24  Occ=2.000000D+00  E=-1.413501D+00
              MO Center=  3.2D-01, -2.1D+00,  6.4D-01, r^2= 5.3D+00
   Bfn.  Coefficient  Atom+Function         Bfn.  Coefficient  Atom+Function  
  ----- ------------  ---------------      ----- ------------  ---------------
   284      0.311111  18 O  s               283      0.284895  18 O  s         
   258      0.200382  17 C  s                79      0.187707   6 O  s         
    80      0.186344   6 O  s         

 Vector   25  Occ=2.000000D+00  E=-1.410117D+00
              MO Center=  1.3D+00, -1.2D+00,  2.6D-01, r^2= 5.8D+00
   Bfn.  Coefficient  Atom+Function         Bfn.  Coefficient  Atom+Function  
  ----- ------------  ---------------      ----- ------------  ---------------
    80      0.277336   6 O  s                79      0.274142   6 O  s         
   284     -0.218271  18 O  s               283     -0.205295  18 O  s         
    54      0.188679   5 C  s         

 Vector   26  Occ=2.000000D+00  E=-1.396565D+00
              MO Center= -1.1D-03,  5.1D-01, -1.5D+00, r^2= 3.2D+00
   Bfn.  Coefficient  Atom+Function         Bfn.  Coefficient  Atom+Function  
  ----- ------------  ---------------      ----- ------------  ---------------
   377      0.345480  23 O  s               376      0.317756  23 O  s         
   351      0.224500  22 C  s         

 Vector   27  Occ=2.000000D+00  E=-1.386082D+00
              MO Center=  4.4D-01,  3.6D+00,  2.0D-01, r^2= 2.2D+00
   Bfn.  Coefficient  Atom+Function         Bfn.  Coefficient  Atom+Function  
  ----- ------------  ---------------      ----- ------------  ---------------
   576      0.366235  34 O  s               575      0.340586  34 O  s         
   550      0.238378  33 C  s         

 Vector   28  Occ=2.000000D+00  E=-1.266431D+00
              MO Center=  9.0D-01, -2.8D-01, -4.6D-01, r^2= 3.9D+00
   Bfn.  Coefficient  Atom+Function         Bfn.  Coefficient  Atom+Function  
  ----- ------------  ---------------      ----- ------------  ---------------
   105      0.299761   7 N  s               104      0.247720   7 N  s         
   402      0.217833  24 N  s               401      0.215903  24 N  s         
   377     -0.190995  23 O  s               139     -0.184917   9 C  s         
    80     -0.172824   6 O  s               376     -0.152426  23 O  s         

 Vector   29  Occ=2.000000D+00  E=-1.253565D+00
              MO Center=  7.7D-01,  7.7D-02, -2.7D-01, r^2= 4.6D+00
   Bfn.  Coefficient  Atom+Function         Bfn.  Coefficient  Atom+Function  
  ----- ------------  ---------------      ----- ------------  ---------------
   402     -0.299463  24 N  s               105      0.285785   7 N  s         
   401     -0.244764  24 N  s               104      0.236398   7 N  s         

 Vector   30  Occ=2.000000D+00  E=-1.239739D+00
              MO Center= -1.6D+00, -2.2D+00,  1.3D+00, r^2= 1.6D+00
   Bfn.  Coefficient  Atom+Function         Bfn.  Coefficient  Atom+Function  
  ----- ------------  ---------------      ----- ------------  ---------------
   309      0.377574  19 N  s               308      0.364597  19 N  s         
   284     -0.234574  18 O  s               283     -0.191221  18 O  s         
   261     -0.163940  17 C  px              341      0.163985  21 H  s         
   216     -0.157678  14 C  s               332      0.154352  20 H  s         

 Vector   31  Occ=2.000000D+00  E=-1.211148D+00
              MO Center=  1.4D+00,  2.9D+00,  8.1D-02, r^2= 2.1D+00
   Bfn.  Coefficient  Atom+Function         Bfn.  Coefficient  Atom+Function  
  ----- ------------  ---------------      ----- ------------  ---------------
   601      0.397423  35 N  s               600      0.362228  35 N  s         
   436     -0.221658  26 C  s               576     -0.188476  34 O  s         
   556     -0.180071  33 C  px              402     -0.167927  24 N  s         
   553      0.168661  33 C  px              575     -0.162668  34 O  s         
   624      0.157226  36 H  s               633      0.156557  37 H  s         

 Vector   32  Occ=2.000000D+00  E=-1.102510D+00
              MO Center= -1.1D-01, -1.2D+00, -7.0D-01, r^2= 6.2D+00
   Bfn.  Coefficient  Atom+Function         Bfn.  Coefficient  Atom+Function  
  ----- ------------  ---------------      ----- ------------  ---------------
   172      0.213234  11 C  s               215      0.173919  14 C  s         
   138      0.170454   9 C  s         

 Vector   33  Occ=2.000000D+00  E=-1.087253D+00
              MO Center= -1.2D+00,  8.8D-01,  3.2D-02, r^2= 5.9D+00
   Bfn.  Coefficient  Atom+Function         Bfn.  Coefficient  Atom+Function  
  ----- ------------  ---------------      ----- ------------  ---------------
   469      0.238368  28 C  s               513      0.199737  31 S  s         
   436      0.197393  26 C  s               475     -0.175406  28 C  px        
   435      0.160118  26 C  s         

 Vector   34  Occ=2.000000D+00  E=-1.031213D+00
              MO Center=  1.3D+00, -1.5D+00,  3.7D-01, r^2= 7.4D+00
   Bfn.  Coefficient  Atom+Function         Bfn.  Coefficient  Atom+Function  
  ----- ------------  ---------------      ----- ------------  ---------------
    11      0.256919   2 C  s               215      0.186495  14 C  s         
   173      0.169016  11 C  s               174      0.153196  11 C  s         
   216      0.150585  14 C  s         

 Vector   35  Occ=2.000000D+00  E=-9.933135D-01
              MO Center=  1.1D-02,  3.3D-01,  1.8D-01, r^2= 9.6D+00
   Bfn.  Coefficient  Atom+Function         Bfn.  Coefficient  Atom+Function  
  ----- ------------  ---------------      ----- ------------  ---------------
   513      0.236299  31 S  s                11      0.184068   2 C  s         
   435     -0.173867  26 C  s               475     -0.151289  28 C  px        

 Vector   36  Occ=2.000000D+00  E=-9.755457D-01
              MO Center= -1.0D-01, -4.8D-01, -1.5D-01, r^2= 9.4D+00
   Bfn.  Coefficient  Atom+Function         Bfn.  Coefficient  Atom+Function  
  ----- ------------  ---------------      ----- ------------  ---------------
   216      0.257837  14 C  s               513      0.185584  31 S  s         
   138     -0.163724   9 C  s               215      0.156424  14 C  s         
   435     -0.150199  26 C  s         

 Vector   37  Occ=2.000000D+00  E=-8.908410D-01
              MO Center= -5.8D-01, -1.3D+00, -5.2D-01, r^2= 6.9D+00
   Bfn.  Coefficient  Atom+Function         Bfn.  Coefficient  Atom+Function  
  ----- ------------  ---------------      ----- ------------  ---------------
   216      0.338022  14 C  s               172     -0.217972  11 C  s         
   223      0.208916  14 C  pz              139      0.181705   9 C  s         
   514     -0.157760  31 S  s               145      0.150073   9 C  py        

 Vector   38  Occ=2.000000D+00  E=-8.644901D-01
              MO Center= -1.1D+00,  1.6D+00,  2.6D-01, r^2= 6.8D+00
   Bfn.  Coefficient  Atom+Function         Bfn.  Coefficient  Atom+Function  
  ----- ------------  ---------------      ----- ------------  ---------------
   514      0.308055  31 S  s               441      0.296535  26 C  px        
   513      0.231279  31 S  s               469     -0.227048  28 C  s         
   493     -0.163243  29 H  s         

 Vector   39  Occ=2.000000D+00  E=-8.295623D-01
              MO Center=  1.1D+00, -6.3D-01, -9.6D-02, r^2= 6.6D+00
   Bfn.  Coefficient  Atom+Function         Bfn.  Coefficient  Atom+Function  
  ----- ------------  ---------------      ----- ------------  ---------------
   139      0.226810   9 C  s               107      0.205375   7 N  px        
    12      0.194666   2 C  s                54      0.180763   5 C  s         
   108      0.181112   7 N  py              105     -0.171156   7 N  s         
   128     -0.168185   8 H  s                60     -0.164315   5 C  px        
   217      0.153749  14 C  s         

 Vector   40  Occ=2.000000D+00  E=-8.137327D-01
              MO Center= -2.0D-01, -8.3D-01,  1.4D-01, r^2= 6.5D+00
   Bfn.  Coefficient  Atom+Function         Bfn.  Coefficient  Atom+Function  
  ----- ------------  ---------------      ----- ------------  ---------------
   406      0.211284  24 N  pz              425      0.191673  25 H  s         
   352     -0.157356  22 C  s         

 Vector   41  Occ=2.000000D+00  E=-8.057358D-01
              MO Center= -2.8D-01,  2.1D-01,  1.2D-01, r^2= 7.8D+00
   Bfn.  Coefficient  Atom+Function         Bfn.  Coefficient  Atom+Function  
  ----- ------------  ---------------      ----- ------------  ---------------
   352      0.251220  22 C  s               425     -0.214650  25 H  s         
   406     -0.203482  24 N  pz              402     -0.167117  24 N  s         
   442     -0.159335  26 C  py        

 Vector   42  Occ=2.000000D+00  E=-7.937759D-01
              MO Center=  4.7D-01,  8.2D-01,  3.6D-02, r^2= 9.5D+00
   Bfn.  Coefficient  Atom+Function         Bfn.  Coefficient  Atom+Function  
  ----- ------------  ---------------      ----- ------------  ---------------
   603      0.245729  35 N  px              556     -0.188391  33 C  px        
   550     -0.172426  33 C  s         

 Vector   43  Occ=2.000000D+00  E=-7.545155D-01
              MO Center=  5.6D-01,  8.9D-01,  1.6D-01, r^2= 9.1D+00
   Bfn.  Coefficient  Atom+Function         Bfn.  Coefficient  Atom+Function  
  ----- ------------  ---------------      ----- ------------  ---------------
   604      0.244075  35 N  py              624     -0.229873  36 H  s         
   352      0.211575  22 C  s               552     -0.198294  33 C  s         
   145     -0.186868   9 C  py              442     -0.186668  26 C  py        
   553      0.170619  33 C  px              625     -0.158971  36 H  s         
   341      0.153119  21 H  s         

 Vector   44  Occ=2.000000D+00  E=-7.472623D-01
              MO Center= -8.7D-01, -1.3D+00,  7.6D-01, r^2= 8.0D+00
   Bfn.  Coefficient  Atom+Function         Bfn.  Coefficient  Atom+Function  
  ----- ------------  ---------------      ----- ------------  ---------------
   313      0.281243  19 N  pz              332      0.267219  20 H  s         
   341     -0.224554  21 H  s               333      0.162935  20 H  s         

 Vector   45  Occ=2.000000D+00  E=-7.240737D-01
              MO Center=  7.9D-01, -3.3D-01, -3.7D-01, r^2= 7.7D+00
   Bfn.  Coefficient  Atom+Function         Bfn.  Coefficient  Atom+Function  
  ----- ------------  ---------------      ----- ------------  ---------------
   352     -0.290865  22 C  s               145      0.268823   9 C  py        
   144     -0.211012   9 C  px              355     -0.188193  22 C  py        
   139      0.176363   9 C  s               109      0.173462   7 N  pz        
   141     -0.172287   9 C  px              604      0.159793  35 N  py        
   128      0.156833   8 H  s               146     -0.153461   9 C  pz        

 Vector   46  Occ=2.000000D+00  E=-7.029742D-01
              MO Center=  4.6D-01,  1.0D+00, -3.1D-01, r^2= 8.0D+00
   Bfn.  Coefficient  Atom+Function         Bfn.  Coefficient  Atom+Function  
  ----- ------------  ---------------      ----- ------------  ---------------
   442      0.228573  26 C  py              439      0.174671  26 C  py        
   633      0.173792  37 H  s               405     -0.169344  24 N  py        
   426      0.158982  25 H  s         

 Vector   47  Occ=2.000000D+00  E=-6.969008D-01
              MO Center=  8.0D-01, -1.4D+00,  4.3D-01, r^2= 9.0D+00
   Bfn.  Coefficient  Atom+Function         Bfn.  Coefficient  Atom+Function  
  ----- ------------  ---------------      ----- ------------  ---------------
   313     -0.167877  19 N  pz              288      0.164198  18 O  pz        
    80      0.162996   6 O  s               284      0.161347  18 O  s         
    83      0.153940   6 O  py               84     -0.151847   6 O  pz        

 Vector   48  Occ=2.000000D+00  E=-6.842412D-01
              MO Center=  7.1D-01, -1.2D+00,  1.6D-01, r^2= 8.5D+00
   Bfn.  Coefficient  Atom+Function         Bfn.  Coefficient  Atom+Function  
  ----- ------------  ---------------      ----- ------------  ---------------
   216     -0.199377  14 C  s                80      0.186975   6 O  s         
    83      0.185377   6 O  py              288     -0.177036  18 O  pz        
   284     -0.169452  18 O  s               266     -0.153053  17 C  pz        
    84     -0.151628   6 O  pz        

 Vector   49  Occ=2.000000D+00  E=-6.721490D-01
              MO Center=  6.6D-01, -3.7D-01, -3.9D-01, r^2= 9.0D+00
   Bfn.  Coefficient  Atom+Function         Bfn.  Coefficient  Atom+Function  
  ----- ------------  ---------------      ----- ------------  ---------------
   162     -0.183209  10 H  s               143      0.177389   9 C  pz        
   108      0.175590   7 N  py               55      0.151472   5 C  s         

 Vector   50  Occ=2.000000D+00  E=-6.544774D-01
              MO Center= -3.6D-02,  2.1D+00, -1.2D-01, r^2= 6.9D+00
   Bfn.  Coefficient  Atom+Function         Bfn.  Coefficient  Atom+Function  
  ----- ------------  ---------------      ----- ------------  ---------------
   553      0.220645  33 C  px              579      0.190978  34 O  py        
   603     -0.174377  35 N  px              459      0.170209  27 H  s         
   440     -0.168725  26 C  pz              381     -0.151605  23 O  pz        

 Vector   51  Occ=2.000000D+00  E=-6.416568D-01
              MO Center=  1.8D-01, -1.2D+00, -4.8D-01, r^2= 8.8D+00
   Bfn.  Coefficient  Atom+Function         Bfn.  Coefficient  Atom+Function  
  ----- ------------  ---------------      ----- ------------  ---------------
   219      0.196782  14 C  py              379     -0.166221  23 O  px        
   240      0.162672  15 H  s               356      0.156835  22 C  pz        
   248     -0.152279  16 H  s               377      0.152008  23 O  s         

 Vector   52  Occ=2.000000D+00  E=-6.278283D-01
              MO Center=  1.6D+00, -2.8D-01,  4.4D-01, r^2= 9.5D+00
   Bfn.  Coefficient  Atom+Function         Bfn.  Coefficient  Atom+Function  
  ----- ------------  ---------------      ----- ------------  ---------------
    44      0.202726   4 H  s               139     -0.195933   9 C  s         
    14      0.194614   2 C  px               59     -0.168333   5 C  pz        
    35     -0.156514   3 H  s         

 Vector   53  Occ=2.000000D+00  E=-6.258836D-01
              MO Center= -2.6D-01,  6.5D-03,  4.9D-03, r^2= 9.0D+00
   Bfn.  Coefficient  Atom+Function         Bfn.  Coefficient  Atom+Function  
  ----- ------------  ---------------      ----- ------------  ---------------
   436     -0.160825  26 C  s               286      0.156292  18 O  px        

 Vector   54  Occ=2.000000D+00  E=-6.171631D-01
              MO Center= -3.1D-01, -1.4D+00,  2.4D-01, r^2= 9.3D+00
   Bfn.  Coefficient  Atom+Function         Bfn.  Coefficient  Atom+Function  
  ----- ------------  ---------------      ----- ------------  ---------------
   286      0.248323  18 O  px              287     -0.179504  18 O  py        
   284      0.170306  18 O  s               139      0.155938   9 C  s         
   263     -0.156621  17 C  pz              261     -0.155068  17 C  px        

 Vector   55  Occ=2.000000D+00  E=-6.077419D-01
              MO Center= -5.7D-01,  1.3D-01, -2.2D-01, r^2= 9.6D+00
   Bfn.  Coefficient  Atom+Function         Bfn.  Coefficient  Atom+Function  
  ----- ------------  ---------------      ----- ------------  ---------------
   173      0.221041  11 C  s               381     -0.214194  23 O  pz        
   473     -0.176251  28 C  py              354      0.162646  22 C  px        
   494      0.160217  29 H  s               502     -0.155648  30 H  s         

 Vector   56  Occ=2.000000D+00  E=-5.994544D-01
              MO Center=  3.7D-02,  1.9D+00,  6.7D-02, r^2= 8.9D+00
   Bfn.  Coefficient  Atom+Function         Bfn.  Coefficient  Atom+Function  
  ----- ------------  ---------------      ----- ------------  ---------------
   554      0.227300  33 C  py              580     -0.215492  34 O  pz        
   470     -0.168160  28 C  s               579     -0.167074  34 O  py        
   440     -0.158000  26 C  pz        

 Vector   57  Occ=2.000000D+00  E=-5.956991D-01
              MO Center= -2.0D-02, -4.0D-02,  1.9D-01, r^2= 1.1D+01
   Bfn.  Coefficient  Atom+Function         Bfn.  Coefficient  Atom+Function  
  ----- ------------  ---------------      ----- ------------  ---------------
   287      0.167565  18 O  py              438     -0.157617  26 C  px        

 Vector   58  Occ=2.000000D+00  E=-5.908262D-01
              MO Center=  1.2D+00, -1.1D+00,  9.7D-02, r^2= 7.7D+00
   Bfn.  Coefficient  Atom+Function         Bfn.  Coefficient  Atom+Function  
  ----- ------------  ---------------      ----- ------------  ---------------
    83      0.232616   6 O  py               58     -0.183209   5 C  py        
    82      0.166736   6 O  px               59      0.164750   5 C  pz        

 Vector   59  Occ=2.000000D+00  E=-5.797811D-01
              MO Center=  3.5D-01,  8.6D-01, -1.1D-01, r^2= 1.0D+01
   Bfn.  Coefficient  Atom+Function         Bfn.  Coefficient  Atom+Function  
  ----- ------------  ---------------      ----- ------------  ---------------
   173      0.253774  11 C  s               352     -0.237192  22 C  s         
   145      0.215559   9 C  py              579     -0.203199  34 O  py        
   381     -0.189141  23 O  pz              410     -0.187907  24 N  px        
   405      0.175024  24 N  py               14      0.154639   2 C  px        

 Vector   60  Occ=2.000000D+00  E=-5.755133D-01
              MO Center=  1.9D+00, -9.1D-01,  8.7D-01, r^2= 9.9D+00
   Bfn.  Coefficient  Atom+Function         Bfn.  Coefficient  Atom+Function  
  ----- ------------  ---------------      ----- ------------  ---------------
     1      0.300524   1 H  s                 2      0.292563   1 H  s         
    15      0.244559   2 C  py               14      0.212205   2 C  px        
    56     -0.175462   5 C  s         

 Vector   61  Occ=2.000000D+00  E=-5.555436D-01
              MO Center=  1.4D-01,  6.1D-01, -1.3D-01, r^2= 1.0D+01
   Bfn.  Coefficient  Atom+Function         Bfn.  Coefficient  Atom+Function  
  ----- ------------  ---------------      ----- ------------  ---------------
   404      0.160947  24 N  px              580      0.155945  34 O  pz        
   605      0.151652  35 N  pz        

 Vector   62  Occ=2.000000D+00  E=-5.466552D-01
              MO Center= -8.7D-01,  1.4D+00,  2.5D-01, r^2= 8.9D+00
   Bfn.  Coefficient  Atom+Function         Bfn.  Coefficient  Atom+Function  
  ----- ------------  ---------------      ----- ------------  ---------------
   471      0.284926  28 C  s               521     -0.241198  31 S  pz        
   540      0.233815  32 H  s               503     -0.210635  30 H  s         
   472      0.203883  28 C  px              493      0.177902  29 H  s         
   524     -0.162250  31 S  pz        

 Vector   63  Occ=2.000000D+00  E=-5.416195D-01
              MO Center=  6.5D-01, -1.1D+00, -5.3D-02, r^2= 9.0D+00
   Bfn.  Coefficient  Atom+Function         Bfn.  Coefficient  Atom+Function  
  ----- ------------  ---------------      ----- ------------  ---------------
   177     -0.160360  11 C  pz               44      0.158892   4 H  s         

 Vector   64  Occ=2.000000D+00  E=-5.370382D-01
              MO Center=  4.0D-01, -1.8D+00, -6.4D-01, r^2= 7.5D+00
   Bfn.  Coefficient  Atom+Function         Bfn.  Coefficient  Atom+Function  
  ----- ------------  ---------------      ----- ------------  ---------------
   196      0.264782  12 H  s               197      0.247434  12 H  s         
   177     -0.229689  11 C  pz              206     -0.214246  13 H  s         
   175     -0.180674  11 C  px              109     -0.160106   7 N  pz        
    14     -0.157304   2 C  px              173      0.150512  11 C  s         

 Vector   65  Occ=2.000000D+00  E=-5.226881D-01
              MO Center= -6.1D-01, -9.7D-01, -8.3D-01, r^2= 8.0D+00
   Bfn.  Coefficient  Atom+Function         Bfn.  Coefficient  Atom+Function  
  ----- ------------  ---------------      ----- ------------  ---------------
   173      0.290108  11 C  s               139     -0.258595   9 C  s         
   205      0.240118  13 H  s               239      0.221625  15 H  s         
   144      0.200099   9 C  px              206      0.198993  13 H  s         
   176     -0.196573  11 C  py              219      0.191635  14 C  py        
   223      0.189135  14 C  pz              471     -0.177934  28 C  s         

 Vector   66  Occ=2.000000D+00  E=-5.190381D-01
              MO Center= -2.3D-01,  7.8D-01, -3.0D-01, r^2= 9.6D+00
   Bfn.  Coefficient  Atom+Function         Bfn.  Coefficient  Atom+Function  
  ----- ------------  ---------------      ----- ------------  ---------------
   139      0.319188   9 C  s               471     -0.274577  28 C  s         
   440      0.221937  26 C  pz              352     -0.214278  22 C  s         
   459     -0.206777  27 H  s               474     -0.197394  28 C  pz        
   403      0.182248  24 N  s               477     -0.181556  28 C  pz        
   358      0.174956  22 C  py              470      0.174727  28 C  s         

 Vector   67  Occ=2.000000D+00  E=-5.015601D-01
              MO Center=  2.2D-02, -1.5D+00, -9.5D-01, r^2= 6.0D+00
   Bfn.  Coefficient  Atom+Function         Bfn.  Coefficient  Atom+Function  
  ----- ------------  ---------------      ----- ------------  ---------------
   141      0.210652   9 C  px              218      0.201409  14 C  px        
   175     -0.198802  11 C  px              162      0.197136  10 H  s         
   178     -0.190356  11 C  px              248     -0.168498  16 H  s         
   176     -0.162245  11 C  py              142      0.156239   9 C  py        
   240      0.156355  15 H  s               163      0.152540  10 H  s         

 Vector   68  Occ=2.000000D+00  E=-4.773820D-01
              MO Center= -2.3D+00,  1.1D+00,  4.1D-01, r^2= 4.2D+00
   Bfn.  Coefficient  Atom+Function         Bfn.  Coefficient  Atom+Function  
  ----- ------------  ---------------      ----- ------------  ---------------
   514      0.324545  31 S  s               520     -0.318039  31 S  py        
   523     -0.241507  31 S  py              473      0.224604  28 C  py        
   519     -0.199165  31 S  px              475      0.181813  28 C  px        
   403      0.169382  24 N  s         

 Vector   69  Occ=2.000000D+00  E=-4.533236D-01
              MO Center=  5.7D-01, -1.2D-01, -1.0D+00, r^2= 5.9D+00
   Bfn.  Coefficient  Atom+Function         Bfn.  Coefficient  Atom+Function  
  ----- ------------  ---------------      ----- ------------  ---------------
   380      0.363708  23 O  py              139      0.298627   9 C  s         
   383      0.293784  23 O  py              173     -0.253386  11 C  s         
   109      0.198814   7 N  pz               82      0.169795   6 O  px        

 Vector   70  Occ=2.000000D+00  E=-4.518951D-01
              MO Center=  1.3D+00, -3.2D-01,  8.1D-02, r^2= 8.9D+00
   Bfn.  Coefficient  Atom+Function         Bfn.  Coefficient  Atom+Function  
  ----- ------------  ---------------      ----- ------------  ---------------
    84      0.290673   6 O  pz               82      0.264241   6 O  px        
    87      0.227798   6 O  pz              288      0.224719  18 O  pz        
    85      0.218941   6 O  px              291      0.177691  18 O  pz        
   578     -0.164415  34 O  px              105      0.156080   7 N  s         

 Vector   71  Occ=2.000000D+00  E=-4.387468D-01
              MO Center= -4.1D-01, -1.2D+00,  4.5D-01, r^2= 1.1D+01
   Bfn.  Coefficient  Atom+Function         Bfn.  Coefficient  Atom+Function  
  ----- ------------  ---------------      ----- ------------  ---------------
   288      0.414497  18 O  pz              291      0.331125  18 O  pz        
   578      0.235817  34 O  px              173     -0.232700  11 C  s         
   403      0.233848  24 N  s               266     -0.216684  17 C  pz        
   259      0.207402  17 C  s               353     -0.200816  22 C  s         
   197      0.199756  12 H  s               216     -0.192032  14 C  s         

 Vector   72  Occ=2.000000D+00  E=-4.366044D-01
              MO Center=  1.0D+00,  8.1D-01,  8.0D-02, r^2= 1.0D+01
   Bfn.  Coefficient  Atom+Function         Bfn.  Coefficient  Atom+Function  
  ----- ------------  ---------------      ----- ------------  ---------------
   578      0.308726  34 O  px               82      0.242168   6 O  px        
    84      0.242159   6 O  pz              581      0.242142  34 O  px        
    85      0.200765   6 O  px               87      0.190717   6 O  pz        
   460     -0.191060  27 H  s               288     -0.187598  18 O  pz        
   139      0.154237   9 C  s         

 Vector   73  Occ=2.000000D+00  E=-4.302076D-01
              MO Center= -1.1D+00, -2.2D+00,  1.1D+00, r^2= 4.1D+00
   Bfn.  Coefficient  Atom+Function         Bfn.  Coefficient  Atom+Function  
  ----- ------------  ---------------      ----- ------------  ---------------
   312     -0.308292  19 N  py              287      0.302031  18 O  py        
   310      0.285936  19 N  s               311     -0.278341  19 N  px        
   314     -0.269535  19 N  px              315     -0.248023  19 N  py        
   290      0.244283  18 O  py              286      0.230578  18 O  px        
   289      0.194071  18 O  px        

 Vector   74  Occ=2.000000D+00  E=-4.086829D-01
              MO Center=  1.0D+00,  2.4D+00, -4.5D-03, r^2= 6.7D+00
   Bfn.  Coefficient  Atom+Function         Bfn.  Coefficient  Atom+Function  
  ----- ------------  ---------------      ----- ------------  ---------------
   605     -0.357397  35 N  pz              580      0.339319  34 O  pz        
   608     -0.306287  35 N  pz              583      0.263794  34 O  pz        

 Vector   75  Occ=2.000000D+00  E=-4.049492D-01
              MO Center=  6.5D-01,  1.2D+00, -3.3D-01, r^2= 8.2D+00
   Bfn.  Coefficient  Atom+Function         Bfn.  Coefficient  Atom+Function  
  ----- ------------  ---------------      ----- ------------  ---------------
   578     -0.209550  34 O  px              106      0.201722   7 N  s         
   605     -0.195126  35 N  pz              403      0.190844  24 N  s         
   145      0.186268   9 C  py              581     -0.171951  34 O  px        
   608     -0.169434  35 N  pz              407      0.166509  24 N  px        
   107      0.164701   7 N  px              404      0.164405  24 N  px        

 Vector   76  Occ=2.000000D+00  E=-3.973396D-01
              MO Center=  2.5D-01,  8.0D-01, -5.6D-01, r^2= 6.3D+00
   Bfn.  Coefficient  Atom+Function         Bfn.  Coefficient  Atom+Function  
  ----- ------------  ---------------      ----- ------------  ---------------
   404      0.262255  24 N  px              407      0.246768  24 N  px        
   380     -0.224753  23 O  py              470      0.223939  28 C  s         
   383     -0.181314  23 O  py              406     -0.178637  24 N  pz        
   410      0.178447  24 N  px              379     -0.160475  23 O  px        
    82      0.156217   6 O  px              408      0.156869  24 N  py        

 Vector   77  Occ=2.000000D+00  E=-3.730043D-01
              MO Center= -2.5D+00,  1.1D+00,  3.3D-01, r^2= 3.4D+00
   Bfn.  Coefficient  Atom+Function         Bfn.  Coefficient  Atom+Function  
  ----- ------------  ---------------      ----- ------------  ---------------
   519      0.356988  31 S  px              522      0.338449  31 S  px        
   523     -0.316293  31 S  py              520     -0.285648  31 S  py        
   403     -0.235519  24 N  s               524     -0.213289  31 S  pz        
   521     -0.209393  31 S  pz              442      0.170964  26 C  py        
   441      0.158165  26 C  px        

 Vector   78  Occ=0.000000D+00  E= 2.557650D-02
              MO Center=  3.6D-01, -1.3D+00,  3.0D+00, r^2= 2.6D+01
   Bfn.  Coefficient  Atom+Function         Bfn.  Coefficient  Atom+Function  
  ----- ------------  ---------------      ----- ------------  ---------------
   260      3.446079  17 C  s               427      3.090058  25 H  s         
   310     -2.843908  19 N  s                63      2.054765   5 C  px        
   495     -1.989338  29 H  s               130      1.918717   8 H  s         
    37     -1.825396   3 H  s               334     -1.624878  20 H  s         
   471     -1.581389  28 C  s               444     -1.492275  26 C  px        

 Vector   79  Occ=0.000000D+00  E= 3.337224D-02
              MO Center= -1.1D+00, -3.3D+00, -1.3D+00, r^2= 2.9D+01
   Bfn.  Coefficient  Atom+Function         Bfn.  Coefficient  Atom+Function  
  ----- ------------  ---------------      ----- ------------  ---------------
   250     -3.248087  16 H  s                56      2.962254   5 C  s         
    63     -2.721619   5 C  px              217     -2.350676  14 C  s         
    65     -2.231826   5 C  pz              260      2.227943  17 C  s         
   182     -2.011706  11 C  py              403      1.981505  24 N  s         
   174     -1.959665  11 C  s                13      1.940463   2 C  s         

 Vector   80  Occ=0.000000D+00  E= 3.509639D-02
              MO Center=  1.1D+00, -2.1D+00,  9.0D-01, r^2= 3.8D+01
   Bfn.  Coefficient  Atom+Function         Bfn.  Coefficient  Atom+Function  
  ----- ------------  ---------------      ----- ------------  ---------------
   207     -2.774494  13 H  s               147      2.641472   9 C  px        
   130      2.388916   8 H  s               361     -2.400798  22 C  py        
   250      2.087246  16 H  s                46     -2.026674   4 H  s         
   269     -2.036750  17 C  pz               65      1.928737   5 C  pz        
    63      1.871566   5 C  px               12      1.774150   2 C  s         

 Vector   81  Occ=0.000000D+00  E= 4.507093D-02
              MO Center=  1.1D+00,  1.4D+00,  2.9D-01, r^2= 4.0D+01
   Bfn.  Coefficient  Atom+Function         Bfn.  Coefficient  Atom+Function  
  ----- ------------  ---------------      ----- ------------  ---------------
   361      3.577588  22 C  py              471     -2.895816  28 C  s         
   445      2.781196  26 C  py              552      2.539902  33 C  s         
   437      2.394907  26 C  s               444     -2.178189  26 C  px        
   602     -2.178559  35 N  s               353      2.133748  22 C  s         
   559      2.106343  33 C  px              635     -2.102898  37 H  s         

 Vector   82  Occ=0.000000D+00  E= 4.850648D-02
              MO Center=  7.5D-01, -1.1D+00, -2.6D-01, r^2= 4.1D+01
   Bfn.  Coefficient  Atom+Function         Bfn.  Coefficient  Atom+Function  
  ----- ------------  ---------------      ----- ------------  ---------------
   149      4.774117   9 C  pz              164      3.563903  10 H  s         
    65      3.426977   5 C  pz               56     -3.242114   5 C  s         
    63      3.218618   5 C  px              250     -3.204650  16 H  s         
   174      2.505333  11 C  s               403     -2.419965  24 N  s         
     3     -2.326033   1 H  s               495      2.301391  29 H  s         

 Vector   83  Occ=0.000000D+00  E= 5.127853D-02
              MO Center= -7.1D-01,  1.5D-01, -3.2D-01, r^2= 4.4D+01
   Bfn.  Coefficient  Atom+Function         Bfn.  Coefficient  Atom+Function  
  ----- ------------  ---------------      ----- ------------  ---------------
    46      2.880781   4 H  s               504      2.368409  30 H  s         
   403      2.123098  24 N  s               241      1.901917  15 H  s         
   427     -1.835098  25 H  s               542      1.768258  32 H  s         
   361     -1.685550  22 C  py              478      1.690943  28 C  px        
   559      1.623697  33 C  px              148     -1.612750   9 C  py        

 Vector   84  Occ=0.000000D+00  E= 5.590522D-02
              MO Center= -3.0D-01, -5.1D-01,  7.1D-01, r^2= 4.1D+01
   Bfn.  Coefficient  Atom+Function         Bfn.  Coefficient  Atom+Function  
  ----- ------------  ---------------      ----- ------------  ---------------
   343     -3.562495  21 H  s               260      3.384714  17 C  s         
   164     -3.275946  10 H  s                37      2.978369   3 H  s         
   310     -2.860170  19 N  s               495      2.827774  29 H  s         
   471      2.520764  28 C  s               198      2.382965  12 H  s         
   149     -2.183981   9 C  pz              427     -1.849081  25 H  s         

 Vector   85  Occ=0.000000D+00  E= 5.856988D-02
              MO Center= -7.3D-02, -5.4D-01, -5.8D-01, r^2= 4.3D+01
   Bfn.  Coefficient  Atom+Function         Bfn.  Coefficient  Atom+Function  
  ----- ------------  ---------------      ----- ------------  ---------------
   198      4.055023  12 H  s               207     -3.618888  13 H  s         
   504     -2.723655  30 H  s               183      2.487191  11 C  pz        
   164      2.456542  10 H  s               310      2.393079  19 N  s         
   250     -2.213062  16 H  s               260     -2.183097  17 C  s         
   147     -2.108407   9 C  px               37      1.965223   3 H  s         

 Vector   86  Occ=0.000000D+00  E= 6.322431D-02
              MO Center=  1.9D-01,  5.0D-01,  8.7D-01, r^2= 4.1D+01
   Bfn.  Coefficient  Atom+Function         Bfn.  Coefficient  Atom+Function  
  ----- ------------  ---------------      ----- ------------  ---------------
   461     -3.667689  27 H  s               260      3.573368  17 C  s         
   343      3.181408  21 H  s                 3      3.134912   1 H  s         
   130     -2.806879   8 H  s               106     -2.409795   7 N  s         
    37     -2.370011   3 H  s               495      2.360988  29 H  s         
   446     -2.064962  26 C  pz              148      2.047111   9 C  py        

 Vector   87  Occ=0.000000D+00  E= 7.074836D-02
              MO Center=  5.3D-01, -5.7D-01,  9.9D-01, r^2= 4.2D+01
   Bfn.  Coefficient  Atom+Function         Bfn.  Coefficient  Atom+Function  
  ----- ------------  ---------------      ----- ------------  ---------------
   241      6.031602  15 H  s                 3     -4.882660   1 H  s         
    56     -4.872055   5 C  s               495      4.051121  29 H  s         
    63      3.314017   5 C  px              361     -3.271124  22 C  py        
    13     -3.172733   2 C  s               504     -3.178544  30 H  s         
   130      3.101998   8 H  s               207     -2.876149  13 H  s         

 Vector   88  Occ=0.000000D+00  E= 7.206252D-02
              MO Center= -5.9D-01, -4.4D-01, -1.5D+00, r^2= 4.2D+01
   Bfn.  Coefficient  Atom+Function         Bfn.  Coefficient  Atom+Function  
  ----- ------------  ---------------      ----- ------------  ---------------
   250      5.175816  16 H  s               361     -4.902424  22 C  py        
   207     -4.473371  13 H  s               164      4.361707  10 H  s         
   149      3.254501   9 C  pz              225      2.667491  14 C  py        
   461      2.676010  27 H  s               445     -2.489528  26 C  py        
   504      2.381180  30 H  s               635     -2.355167  37 H  s         

 Vector   89  Occ=0.000000D+00  E= 7.517017D-02
              MO Center=  5.1D-01, -1.7D+00, -7.5D-01, r^2= 4.0D+01
   Bfn.  Coefficient  Atom+Function         Bfn.  Coefficient  Atom+Function  
  ----- ------------  ---------------      ----- ------------  ---------------
   198      6.163010  12 H  s               207     -4.439380  13 H  s         
    46      3.963316   4 H  s               427     -3.590448  25 H  s         
   164     -3.220862  10 H  s               181      2.857561  11 C  px        
   183      2.689511  11 C  pz              260      2.637274  17 C  s         
   471     -2.233686  28 C  s                37     -2.202114   3 H  s         

 Vector   90  Occ=0.000000D+00  E= 7.859644D-02
              MO Center= -1.9D-01,  1.0D+00,  7.8D-01, r^2= 4.0D+01
   Bfn.  Coefficient  Atom+Function         Bfn.  Coefficient  Atom+Function  
[...]
   310      8.482897  19 N  s               360     -8.089697  22 C  px        
    13     -7.648930   2 C  s               206      7.575694  13 H  s         
   140      7.282491   9 C  s                63      6.702150   5 C  px        

 Vector  187  Occ=0.000000D+00  E= 4.408223D-01
              MO Center=  6.9D-01, -1.0D+00, -1.1D-01, r^2= 2.1D+01
   Bfn.  Coefficient  Atom+Function         Bfn.  Coefficient  Atom+Function  
  ----- ------------  ---------------      ----- ------------  ---------------
   260     16.867564  17 C  s               552    -13.067372  33 C  s         
   403     12.060107  24 N  s               197     10.266498  12 H  s         
   411     10.281480  24 N  py              173     -8.847321  11 C  s         
   106      8.378792   7 N  s               174     -8.369256  11 C  s         
   114      6.890601   7 N  py              445      6.551656  26 C  py        

 Vector  188  Occ=0.000000D+00  E= 4.436022D-01
              MO Center=  4.8D-01,  9.9D-01,  2.5D-01, r^2= 2.1D+01
   Bfn.  Coefficient  Atom+Function         Bfn.  Coefficient  Atom+Function  
  ----- ------------  ---------------      ----- ------------  ---------------
   602      9.068968  35 N  s               559     -8.032598  33 C  px        
    63     -6.781289   5 C  px               56      6.455584   5 C  s         
   361      5.282487  22 C  py              471     -5.173680  28 C  s         
   106     -4.741824   7 N  s               241     -4.752176  15 H  s         
   437     -4.606451  26 C  s               216      4.521024  14 C  s         

 Vector  189  Occ=0.000000D+00  E= 4.482933D-01
              MO Center=  7.6D-01, -1.1D+00,  1.7D-01, r^2= 2.1D+01
   Bfn.  Coefficient  Atom+Function         Bfn.  Coefficient  Atom+Function  
  ----- ------------  ---------------      ----- ------------  ---------------
   148     15.050362   9 C  py               13     11.333301   2 C  s         
   427     -9.236560  25 H  s                12      8.659924   2 C  s         
   361     -8.531079  22 C  py              471      8.449170  28 C  s         
   260     -7.853549  17 C  s               149      7.695107   9 C  pz        
   217      7.671933  14 C  s               106     -7.171282   7 N  s         

 Vector  190  Occ=0.000000D+00  E= 4.505185D-01
              MO Center=  4.8D-01,  1.4D-01,  5.0D-01, r^2= 2.2D+01
   Bfn.  Coefficient  Atom+Function         Bfn.  Coefficient  Atom+Function  
  ----- ------------  ---------------      ----- ------------  ---------------
   552     19.767948  33 C  s               361    -14.398241  22 C  py        
    13    -11.741182   2 C  s               427     10.842378  25 H  s         
   362    -10.699600  22 C  pz              360     10.206849  22 C  px        
   149      9.655335   9 C  pz              445     -9.644272  26 C  py        
    12     -9.387957   2 C  s                56     -9.066901   5 C  s         

 Vector  191  Occ=0.000000D+00  E= 4.546136D-01
              MO Center= -8.8D-02, -2.2D-01, -1.3D-01, r^2= 1.9D+01
   Bfn.  Coefficient  Atom+Function         Bfn.  Coefficient  Atom+Function  
  ----- ------------  ---------------      ----- ------------  ---------------
   471     17.727425  28 C  s               260    -11.707423  17 C  s         
   444      9.847391  26 C  px              174      9.560974  11 C  s         
   113      9.239996   7 N  px              217      8.889000  14 C  s         
    56     -7.578270   5 C  s               552     -7.446093  33 C  s         
   115      6.666859   7 N  pz              361     -6.648443  22 C  py        

 Vector  192  Occ=0.000000D+00  E= 4.561116D-01
              MO Center=  4.6D-01,  5.4D-01, -1.0D-01, r^2= 2.0D+01
   Bfn.  Coefficient  Atom+Function         Bfn.  Coefficient  Atom+Function  
  ----- ------------  ---------------      ----- ------------  ---------------
   552     14.710605  33 C  s               260     13.161329  17 C  s         
   310     -9.858607  19 N  s               602     -9.780025  35 N  s         
   427     -8.572620  25 H  s                56      8.522579   5 C  s         
   362      7.847962  22 C  pz              148      6.861576   9 C  py        
   437      6.577963  26 C  s               444     -6.423851  26 C  px        

 Vector  193  Occ=0.000000D+00  E= 4.618499D-01
              MO Center= -2.4D-01,  3.6D-01,  7.5D-01, r^2= 1.9D+01
   Bfn.  Coefficient  Atom+Function         Bfn.  Coefficient  Atom+Function  
  ----- ------------  ---------------      ----- ------------  ---------------
   552     17.174769  33 C  s               260    -10.366312  17 C  s         
   360      8.908003  22 C  px              106     -8.806872   7 N  s         
   445     -8.793729  26 C  py               56      7.643149   5 C  s         
   361     -7.379863  22 C  py              310      6.929202  19 N  s         
   217     -6.744247  14 C  s               148     -6.486364   9 C  py        

 Vector  194  Occ=0.000000D+00  E= 4.671278D-01
              MO Center=  9.6D-01,  2.8D-01,  9.2D-02, r^2= 2.0D+01
   Bfn.  Coefficient  Atom+Function         Bfn.  Coefficient  Atom+Function  
  ----- ------------  ---------------      ----- ------------  ---------------
   403     10.164471  24 N  s               360      8.059034  22 C  px        
   106     -7.505755   7 N  s               149      7.331096   9 C  pz        
   602     -6.844105  35 N  s               411      5.340573  24 N  py        
   437      5.305504  26 C  s               427     -5.113808  25 H  s         
   197     -4.933905  12 H  s               361     -4.946572  22 C  py        

 Vector  195  Occ=0.000000D+00  E= 4.674680D-01
              MO Center=  1.4D+00,  1.3D-01,  6.9D-02, r^2= 1.8D+01
   Bfn.  Coefficient  Atom+Function         Bfn.  Coefficient  Atom+Function  
  ----- ------------  ---------------      ----- ------------  ---------------
   260     10.991989  17 C  s               471     -8.725873  28 C  s         
   444     -6.917708  26 C  px              148      6.616563   9 C  py        
    13     -6.238489   2 C  s               310     -6.259018  19 N  s         
   552      4.959954  33 C  s                56     -4.896631   5 C  s         
   147      4.252900   9 C  px               20      4.192598   2 C  px        

 Vector  196  Occ=0.000000D+00  E= 4.744070D-01
              MO Center= -6.3D-01, -1.3D+00,  3.2D-01, r^2= 1.7D+01
   Bfn.  Coefficient  Atom+Function         Bfn.  Coefficient  Atom+Function  
  ----- ------------  ---------------      ----- ------------  ---------------
   310    -14.645288  19 N  s               217     13.377211  14 C  s         
    56    -10.045044   5 C  s               106     -8.113331   7 N  s         
   149      7.404136   9 C  pz              552     -7.259820  33 C  s         
   269      6.908239  17 C  pz              260      6.162638  17 C  s         
   353      5.981173  22 C  s               174      5.543943  11 C  s         

 Vector  197  Occ=0.000000D+00  E= 4.766897D-01
              MO Center= -3.0D-01,  3.5D-01,  2.2D-01, r^2= 1.7D+01
   Bfn.  Coefficient  Atom+Function         Bfn.  Coefficient  Atom+Function  
  ----- ------------  ---------------      ----- ------------  ---------------
   471     33.094429  28 C  s               494    -10.085460  29 H  s         
   444      9.841938  26 C  px              446     -9.199453  26 C  pz        
   361     -9.035198  22 C  py              353     -8.223067  22 C  s         
   217     -6.331250  14 C  s               174     -6.222778  11 C  s         
   503     -5.496533  30 H  s               436      4.923637  26 C  s         

 Vector  198  Occ=0.000000D+00  E= 4.808552D-01
              MO Center=  3.5D-01,  3.3D-01, -9.6D-02, r^2= 2.0D+01
   Bfn.  Coefficient  Atom+Function         Bfn.  Coefficient  Atom+Function  
  ----- ------------  ---------------      ----- ------------  ---------------
   174     12.325752  11 C  s                56    -10.715146   5 C  s         
   106     -9.500130   7 N  s               260     -8.748511  17 C  s         
   113      8.530312   7 N  px              149      8.315496   9 C  pz        
   471      7.355670  28 C  s                13     -7.285079   2 C  s         
   353      6.919183  22 C  s               148     -6.867214   9 C  py        

 Vector  199  Occ=0.000000D+00  E= 4.877129D-01
              MO Center= -7.7D-01, -1.3D+00, -9.7D-02, r^2= 1.8D+01
   Bfn.  Coefficient  Atom+Function         Bfn.  Coefficient  Atom+Function  
  ----- ------------  ---------------      ----- ------------  ---------------
   260     17.828687  17 C  s               471     15.222514  28 C  s         
   310    -14.562169  19 N  s               217     12.102649  14 C  s         
   552    -10.742647  33 C  s               427    -10.574310  25 H  s         
   403     -9.526937  24 N  s               240     -6.779272  15 H  s         
   173      6.150887  11 C  s               249     -5.990692  16 H  s         

 Vector  200  Occ=0.000000D+00  E= 4.920688D-01
              MO Center= -2.0D-01,  1.6D-01,  3.5D-02, r^2= 1.8D+01
   Bfn.  Coefficient  Atom+Function         Bfn.  Coefficient  Atom+Function  
  ----- ------------  ---------------      ----- ------------  ---------------
   552     16.659958  33 C  s               471     16.554985  28 C  s         
   403    -14.990508  24 N  s               260     11.982687  17 C  s         
   353     -9.626924  22 C  s               445     -9.658169  26 C  py        
   148      7.967935   9 C  py              216     -7.095209  14 C  s         
   181      6.838699  11 C  px              174     -6.775354  11 C  s         

 Vector  201  Occ=0.000000D+00  E= 4.944563D-01
              MO Center=  2.3D-01, -3.8D-01, -3.7D-01, r^2= 1.9D+01
   Bfn.  Coefficient  Atom+Function         Bfn.  Coefficient  Atom+Function  
  ----- ------------  ---------------      ----- ------------  ---------------
   552     16.961248  33 C  s                56     12.244626   5 C  s         
   174    -10.182901  11 C  s               260      9.643011  17 C  s         
   427     -7.159439  25 H  s               217     -7.123251  14 C  s         
   602     -6.782893  35 N  s               241      6.608546  15 H  s         
    81     -6.568845   6 O  s               471     -6.584183  28 C  s         

 Vector  202  Occ=0.000000D+00  E= 4.973567D-01
              MO Center=  9.5D-01, -4.2D-01, -5.8D-02, r^2= 2.0D+01
   Bfn.  Coefficient  Atom+Function         Bfn.  Coefficient  Atom+Function  
  ----- ------------  ---------------      ----- ------------  ---------------
   260    -16.559317  17 C  s               174     15.183167  11 C  s         
   411     12.433178  24 N  py              149     11.564968   9 C  pz        
   197     -8.847021  12 H  s               403     -8.709832  24 N  s         
    56     -7.709119   5 C  s               173      6.844588  11 C  s         
   410     -6.767546  24 N  px              217      6.184956  14 C  s         

 Vector  203  Occ=0.000000D+00  E= 5.033484D-01
              MO Center= -3.2D-01, -6.3D-01,  4.7D-01, r^2= 1.9D+01
   Bfn.  Coefficient  Atom+Function         Bfn.  Coefficient  Atom+Function  
  ----- ------------  ---------------      ----- ------------  ---------------
   260     19.194679  17 C  s               552    -16.541132  33 C  s         
   471     15.736665  28 C  s               216     10.163659  14 C  s         
   445      9.474799  26 C  py              240     -7.757609  15 H  s         
   361     -7.225898  22 C  py              113      7.118019   7 N  px        
    12      6.654322   2 C  s               437     -6.411001  26 C  s         


 center of mass
 --------------
 x =  -0.01670370 y =   0.04833859 z =  -0.01559292

 moments of inertia (a.u.)
 ------------------
        6067.344001223861          -0.000000000003          -0.000000000001
          -0.000000000003        4500.565128677105          -0.000000000001
          -0.000000000001          -0.000000000001        8248.818723591337

  Mulliken analysis of the total density
  --------------------------------------

    Atom       Charge   Shell Charges
 -----------   ------   -------------------------------------------------------
    1 H    1     0.99   0.77  0.26  0.00  0.03 -0.06
    2 C    6     6.23   2.01  0.66  0.30  0.06  2.07  0.98 -0.02  0.06  0.12
    3 H    1     0.87   0.76  0.13  0.01  0.03 -0.06
    4 H    1     0.80   0.76  0.07 -0.00  0.03 -0.06
    5 C    6     5.29   2.01  0.68  0.10  0.02  1.90  0.42 -0.02  0.24 -0.05
    6 O    8     8.82   2.01  0.81  1.00  0.17  2.81  1.87  0.16  0.02 -0.01
    7 N    7     7.39   2.01  0.72  0.82 -0.14  2.45  1.43  0.03  0.05  0.03
    8 H    1     0.90   0.73  0.20 -0.02  0.06 -0.07
    9 C    6     6.33   2.01  0.66 -0.02  0.10  1.99  1.35  0.11  0.14  0.01
   10 H    1     1.07   0.78  0.23  0.02  0.03  0.01
   11 C    6     6.14   2.01  0.66  0.44  0.07  2.03  0.70 -0.03  0.09  0.17
   12 H    1     0.94   0.78  0.21  0.01  0.03 -0.09
   13 H    1     0.91   0.78  0.21 -0.01  0.03 -0.10
   14 C    6     6.48   2.01  0.66  0.63 -0.05  2.05  0.93 -0.01  0.09  0.17
   15 H    1     0.86   0.78  0.14 -0.03  0.03 -0.06
   16 H    1     0.83   0.77  0.12  0.00  0.03 -0.09
   17 C    6     4.61   2.01  0.68  0.06  0.05  1.90 -0.10 -0.02  0.24 -0.21
   18 O    8     8.90   2.01  0.81  1.04  0.19  2.81  1.87  0.14  0.02  0.00
   19 N    7     7.27   2.01  0.72  0.81 -0.13  2.47  1.25  0.11  0.04 -0.02
   20 H    1     1.00   0.76  0.22 -0.01  0.05 -0.02
   21 H    1     0.90   0.74  0.19 -0.02  0.06 -0.07
   22 C    6     4.54   2.01  0.68  0.05 -0.04  1.88  0.03 -0.03  0.24 -0.27
   23 O    8     8.95   2.01  0.82  1.06  0.21  2.79  1.87  0.17  0.01  0.00
   24 N    7     7.19   2.01  0.72  0.84 -0.29  2.46  1.43 -0.06  0.06  0.04
   25 H    1     1.08   0.76  0.33 -0.02  0.06 -0.05
   26 C    6     6.49   2.01  0.66  0.09  0.00  1.99  1.34  0.15  0.14  0.10
   27 H    1     1.09   0.77  0.28 -0.00  0.03  0.01
   28 C    6     5.77   2.01  0.66  0.07 -0.09  1.99  0.99  0.03  0.09  0.02
   29 H    1     1.16   0.77  0.38 -0.00  0.03 -0.02
   30 H    1     1.02   0.76  0.26  0.00  0.03 -0.04
   31 S   16    15.63   2.00  2.03  0.86  0.66  0.03  6.00  2.32  1.73  0.06  0.10 -0.18
   32 H    1     1.01   0.71  0.22  0.00  0.03  0.05
   33 C    6     4.73   2.01  0.68  0.16  0.03  1.89 -0.16 -0.01  0.24 -0.10
   34 O    8     8.78   2.01  0.82  1.03  0.17  2.79  1.83  0.13  0.01 -0.01
   35 N    7     7.18   2.01  0.72  0.83 -0.19  2.46  1.23  0.09  0.04 -0.02
   36 H    1     0.87   0.73  0.22 -0.01  0.06 -0.12
   37 H    1     1.00   0.75  0.22 -0.01  0.05 -0.03

       Multipole analysis of the density wrt the origin
       ------------------------------------------------

     L   x y z        total         open         nuclear
     -   - - -        -----         ----         -------
     0   0 0 0     -0.000000      0.000000    154.000000

     1   1 0 0     -0.073148      0.000000     -0.000000
     1   0 1 0     -1.690277      0.000000      0.000000
     1   0 0 1      0.753828      0.000000      0.000000

     2   2 0 0    -85.592898      0.000000   1826.861977
     2   1 1 0      0.890256      0.000000     -9.658505
     2   1 0 1      1.509185      0.000000     23.309049
     2   0 2 0   -107.329584      0.000000   2622.840268
     2   0 1 1      2.533546      0.000000     11.725397
     2   0 0 2    -90.747012      0.000000    653.123721


 Task  times  cpu:    14268.7s     wall:    14314.7s


                                NWChem Input Module
                                -------------------


 Summary of allocated global arrays
-----------------------------------
  No active global arrays


MA_summarize_allocated_blocks: starting scan ...
MA_summarize_allocated_blocks: scan completed: 0 heap blocks, 0 stack blocks
MA usage statistics:

	allocation statistics:
					      heap	     stack
					      ----	     -----
	current number of blocks	         0	         0
	maximum number of blocks	        16	        14
	current total bytes		         0	         0
	maximum total bytes		    146664	  35431464
	maximum total K-bytes		       147	     35432
	maximum total M-bytes		         1	        36


                                     CITATION
                                     --------
                Please cite the following reference when publishing
                           results obtained with NWChem:

          E. Apra, E. J. Bylaska, W. A. de Jong, N. Govind, K. Kowalski,
       T. P. Straatsma, M. Valiev, H. J. J. van Dam, Y. Alexeev, J. Anchell,
       V. Anisimov, F. W. Aquino, R. Atta-Fynn, J. Autschbach, N. P. Bauman,
     J. C. Becca, D. E. Bernholdt, K. Bhaskaran-Nair, S. Bogatko, P. Borowski,
         J. Boschen, J. Brabec, A. Bruner, E. Cauet, Y. Chen, G. N. Chuev,
      C. J. Cramer, J. Daily, M. J. O. Deegan, T. H. Dunning Jr., M. Dupuis,
   K. G. Dyall, G. I. Fann, S. A. Fischer, A. Fonari, H. Fruchtl, L. Gagliardi,
      J. Garza, N. Gawande, S. Ghosh, K. Glaesemann, A. W. Gotz, J. Hammond,
       V. Helms, E. D. Hermes, K. Hirao, S. Hirata, M. Jacquelin, L. Jensen,
   B. G. Johnson, H. Jonsson, R. A. Kendall, M. Klemm, R. Kobayashi, V. Konkov,
      S. Krishnamoorthy, M. Krishnan, Z. Lin, R. D. Lins, R. J. Littlefield,
      A. J. Logsdail, K. Lopata, W. Ma, A. V. Marenich, J. Martin del Campo,
   D. Mejia-Rodriguez, J. E. Moore, J. M. Mullin, T. Nakajima, D. R. Nascimento,
    J. A. Nichols, P. J. Nichols, J. Nieplocha, A. Otero-de-la-Roza, B. Palmer,
    A. Panyala, T. Pirojsirikul, B. Peng, R. Peverati, J. Pittner, L. Pollack,
   R. M. Richard, P. Sadayappan, G. C. Schatz, W. A. Shelton, D. W. Silverstein,
   D. M. A. Smith, T. A. Soares, D. Song, M. Swart, H. L. Taylor, G. S. Thomas,
            V. Tipparaju, D. G. Truhlar, K. Tsemekhman, T. Van Voorhis,
      A. Vazquez-Mayagoitia, P. Verma, O. Villa, A. Vishnu, K. D. Vogiatzis,
        D. Wang, J. H. Weare, M. J. Williamson, T. L. Windus, K. Wolinski,
        A. T. Wong, Q. Wu, C. Yang, Q. Yu, M. Zacharias, Z. Zhang, Y. Zhao,
                                and R. J. Harrison
                        "NWChem: Past, present, and future
                         J. Chem. Phys. 152, 184102 (2020)
                               doi:10.1063/5.0004997

                                      AUTHORS
                                      -------
  E. Apra, E. J. Bylaska, N. Govind, K. Kowalski, M. Valiev, D. Mejia-Rodriguez,
       A. Kunitsa, N. P. Bauman, A. Panyala, W. A. de Jong, T. P. Straatsma,
   H. J. J. van Dam, D. Wang, T. L. Windus, J. Hammond, J. Autschbach, A. Woods,
    K. Bhaskaran-Nair, J. Brabec, K. Lopata, S. A. Fischer, S. Krishnamoorthy,
     M. Jacquelin, W. Ma, M. Klemm, O. Villa, Y. Chen, V. Anisimov, F. Aquino,
     S. Hirata, M. T. Hackler, E. Hermes, L. Jensen, J. E. Moore, J. C. Becca,
      V. Konjkov, T. Risthaus, M. Malagoli, A. Marenich, A. Otero-de-la-Roza,
        J. Mullin, P. Nichols, R. Peverati, J. Pittner, Y. Zhao, P.-D. Fan,
        A. Fonari, M. J. Williamson, R. J. Harrison, J. R. Rehr, M. Dupuis,
     D. Silverstein, D. M. A. Smith, J. Nieplocha, V. Tipparaju, M. Krishnan,
     B. E. Van Kuiken, A. Vazquez-Mayagoitia, M. Swart, Q. Wu, T. Van Voorhis,
     A. A. Auer, M. Nooijen, L. D. Crosby, E. Brown, G. Cisneros, G. I. Fann,
   H. Fruchtl, J. Garza, K. Hirao, R. A. Kendall, J. A. Nichols, K. Tsemekhman,
    K. Wolinski, J. Anchell, D. E. Bernholdt, P. Borowski, T. Clark, D. Clerc,
   H. Dachsel, M. J. O. Deegan, K. Dyall, D. Elwood, E. Glendening, M. Gutowski,
   A. C. Hess, J. Jaffe, B. G. Johnson, J. Ju, R. Kobayashi, R. Kutteh, Z. Lin,
   R. Littlefield, X. Long, B. Meng, T. Nakajima, S. Niu, L. Pollack, M. Rosing,
   K. Glaesemann, G. Sandrone, M. Stave, H. Taylor, G. Thomas, J. H. van Lenthe,
                               A. T. Wong, Z. Zhang.

 Total times  cpu:    14268.7s     wall:    14315.6s
